                         Program Version 4.0.1 -  RELEASE  -
|  1> ! B3LYP 6-31G(d,p) CPCM(water) NumFreq
|  2>
|  3> * xyzfile 0 1 etanoico.xyz
|  4>
|  5>                          ****END OF INPUT****

CARTESIAN COORDINATES (ANGSTROEM)
---------------------------------
  C     -4.696170   -0.439770   -0.019030
  C     -3.670950    0.644970   -0.152210
  H     -5.699570   -0.008820   -0.060500
  H     -4.545840   -0.978930    0.919560
  H     -4.586220   -1.145730   -0.847270
  O     -2.850420    0.710780   -1.052990
  O     -3.744890    1.559490    0.840060
  H     -4.450250    1.376070    1.488840

 Total Charge           Charge          ....    0
 Multiplicity           Mult            ....    1
 Number of Electrons    NEL             ....   32
 Basis Dimension        Dim             ....   76

ORBITAL ENERGIES
----------------

  NO   OCC          E(Eh)            E(eV)
   0   2.0000     -19.186130      -522.0811
   1   2.0000     -19.134620      -520.6795
   2   2.0000     -10.319809      -280.8163
   3   2.0000     -10.181035      -277.0401
   4   2.0000      -1.093196       -29.7474
   5   2.0000      -1.014510       -27.6062
   6   2.0000      -0.741597       -20.1799
   7   2.0000      -0.615164       -16.7395
   8   2.0000      -0.502106       -13.6630
   9   2.0000      -0.462693       -12.5905
  10   2.0000      -0.460536       -12.5318
  11   2.0000      -0.408863       -11.1257
  12   2.0000      -0.384236       -10.4556
  13   2.0000      -0.361710        -9.8426
  14   2.0000      -0.317201        -8.6315
  15   2.0000      -0.275690        -7.5019
  16   0.0000       0.011423         0.3108
  17   0.0000       0.082031         2.2322
  18   0.0000       0.146667         3.9910
  19   0.0000       0.169554         4.6138
  20   0.0000       0.187320         5.0972

MULLIKEN ATOMIC CHARGES
-----------------------
   0 C :   -0.424461
   1 C :    0.548226
   2 H :    0.164716
   3 H :    0.167207
   4 H :    0.143781
   5 O :   -0.483605
   6 O :   -0.491339
   7 H :    0.375476
Sum of atomic charges:   -0.0000000

LOEWDIN ATOMIC CHARGES
----------------------
   0 C :   -0.235703
   1 C :    0.157671
   2 H :    0.105826
   3 H :    0.106622
   4 H :    0.094752
   5 O :   -0.280606
   6 O :   -0.164790
   7 H :    0.216227

  Mayer bond orders larger than 0.1
B(  0-C ,  1-C ) :   0.9929 B(  0-C ,  2-H ) :   0.9372 B(  0-C ,  3-H ) :   0.9368
B(  0-C ,  4-H ) :   0.9525 B(  1-C ,  5-O ) :   1.9252 B(  1-C ,  6-O ) :   1.0960
B(  6-O ,  7-H ) :   0.8286

FINAL SINGLE POINT ENERGY      -228.973873793968

DIPOLE MOMENT
-------------
                                X             Y             Z
Electronic contribution:      2.35974       2.46292      -0.33557
Nuclear contribution   :     -3.98759      -3.07184       1.65354
                        -----------------------------------------
Total Dipole Moment    :     -1.62785      -0.60892       1.31797
                        -----------------------------------------
Magnitude (a.u.)       :      2.18122
Magnitude (Debye)      :      5.54423

VIBRATIONAL FREQUENCIES
-----------------------

   0:         0.00 cm**-1
   1:         0.00 cm**-1
   2:         0.00 cm**-1
   3:         0.00 cm**-1
   4:         0.00 cm**-1
   5:         0.00 cm**-1
   6:       109.93 cm**-1
   7:       452.50 cm**-1
   8:       528.95 cm**-1
   9:       597.05 cm**-1
  10:       622.70 cm**-1
  11:       892.48 cm**-1
  12:      1013.84 cm**-1
  13:      1071.86 cm**-1
  14:      1216.91 cm**-1
  15:      1299.89 cm**-1
  16:      1403.97 cm**-1
  17:      1454.81 cm**-1
  18:      1485.22 cm**-1
  19:      1798.83 cm**-1
  20:      3062.04 cm**-1
  21:      3141.73 cm**-1
  22:      3155.43 cm**-1
  23:      3702.32 cm**-1

IR SPECTRUM
-----------

 Mode    freq (cm**-1)   T**2         TX         TY         TZ
-------------------------------------------------------------------
   6:       109.93    0.036112  (  0.015823  -0.164928   0.093062)
   7:       452.50    7.211916  (  0.925717   2.213624   1.206165)
   8:       528.95  159.885519  ( -8.102934   6.737523  -6.988117)
   9:       597.05   12.126320  (  2.819226   1.706270  -1.125578)
  10:       622.70   22.433325  ( -3.020562   2.591380  -2.567934)
  11:       892.48   38.044143  (  1.566882  -3.178749  -5.048226)
  12:      1013.84    5.995002  (  0.231781   1.863963   1.570644)
  13:      1071.86   11.662410  (  2.237875  -1.662203   1.972665)
  14:      1216.91   34.263747  ( -1.033941   3.731204   4.390083)
  15:      1299.89  577.868188  (  0.085249  17.162413  16.831890)
  16:      1403.97  114.532119  ( -4.383601  -9.013836  -3.750590)
  17:      1454.81   11.216837  ( -1.892327   0.292131   2.747834)
  18:      1485.22   12.060119  (  2.257470  -1.971506   1.754170)
  19:      1798.83  485.082491  (-15.461830  -2.889485  15.416394)
  20:      3062.04    1.220369  (  0.361721   0.906787   0.516975)
  21:      3141.73   12.084983  ( -0.470549   2.184418   2.663059)
  22:      3155.43    2.119146  ( -1.033905   0.825369  -0.607414)
  23:      3702.32  161.112738  ( -7.674079   1.065335  10.054169)

--------------------------
THERMOCHEMISTRY AT 298.15K
--------------------------

Temperature         ... 298.15 K
Pressure            ... 1.00 atm
Total Mass          ... 60.05 AMU

Throughout the following assumptions are being made:
  (1) The electronic state is orbitally nondegenerate
  (2) There are no thermally accessible electronically excited states
  (3) Hindered rotations indicated by low frequency modes are not
      treated as such but are treated as vibrations and this may
      cause some error
  (4) All equations used are the standard statistical mechanics
      equations for an ideal gas
  (5) All vibrations are strictly harmonic

freq.     109.93  E(vib)   ...       0.45
freq.     452.50  E(vib)   ...       0.16
freq.     528.95  E(vib)   ...       0.13
freq.     597.05  E(vib)   ...       0.10
freq.     622.70  E(vib)   ...       0.09
freq.     892.48  E(vib)   ...       0.03
freq.    1013.84  E(vib)   ...       0.02
freq.    1071.86  E(vib)   ...       0.02
freq.    1216.91  E(vib)   ...       0.01
freq.    1299.89  E(vib)   ...       0.01
freq.    1403.97  E(vib)   ...       0.00
freq.    1454.81  E(vib)   ...       0.00
freq.    1485.22  E(vib)   ...       0.00
freq.    1798.83  E(vib)   ...       0.00
freq.    3062.04  E(vib)   ...       0.00
freq.    3141.73  E(vib)   ...       0.00
freq.    3155.43  E(vib)   ...       0.00
freq.    3702.32  E(vib)   ...       0.00

------------
INNER ENERGY
------------

The inner energy is: U= E(el) + E(ZPE) + E(vib) + E(rot) + E(trans)
    E(el)   - is the total energy from the electronic structure calculation
              = E(kin-el) + E(nuc-el) + E(el-el) + E(nuc-nuc)
    E(ZPE)  - the the zero temperature vibrational energy from the frequency calculation
    E(vib)  - the the finite temperature correction to E(ZPE) due to population
              of excited vibrational states
    E(rot)  - is the rotational thermal energy
    E(trans)- is the translational thermal energy

Summary of contributions to the inner energy U:
Electronic energy                ...   -228.97387379 Eh
Zero point energy                ...      0.06153436 Eh      38.61 kcal/mol
Thermal vibrational correction   ...      0.00165566 Eh       1.04 kcal/mol
Thermal rotational correction    ...      0.00141627 Eh       0.89 kcal/mol
Thermal translational correction ...      0.00141627 Eh       0.89 kcal/mol
-----------------------------------------------------------------------
Total thermal energy                   -228.90785124 Eh

Summary of corrections to the electronic energy:
(perhaps to be used in another calculation)
Total thermal correction                  0.00448820 Eh       2.82 kcal/mol
Non-thermal (ZPE) correction              0.06153436 Eh      38.61 kcal/mol
-----------------------------------------------------------------------
Total correction                          0.06602256 Eh      41.43 kcal/mol

--------
ENTHALPY
--------

The enthalpy is H = U + kB*T
                kB is Boltzmann's constant
Total free energy                 ...   -228.90785124 Eh
Thermal Enthalpy correction       ...      0.00094421 Eh       0.59 kcal/mol
-----------------------------------------------------------------------
Total Enthalpy                    ...   -228.90690703 Eh

Vibrational entropy computed according to the QRRHO of S. Grimme
Chem.Eur.J. 2012 18 9955

-------
ENTROPY
-------

The entropy contributions are T*S = T*(S(el)+S(vib)+S(rot)+S(trans)
     S(el)   - electronic entropy
     S(vib)  - vibrational entropy
     S(rot)  - rotational entropy
     S(trans)- translational entropy
The entropies will be listed as mutliplied by the temperature to get
units of energy

Electronic entropy                ...      0.00000000 Eh      0.00 kcal/mol
Vibrational entropy               ...      0.00272123 Eh      1.71 kcal/mol
Rotational entropy                ...      0.01030086 Eh      6.46 kcal/mol
Translational entropy             ...      0.01814900 Eh     11.39 kcal/mol
-----------------------------------------------------------------------
Final entropy term                ...      0.03117109 Eh     19.56 kcal/mol

CAUTION: The rotational entropy is not quite correctly treated here
         because it includes a symmetry number that is not yet correctly
         implemented in ORCA!
For a nonlinear molecule the correct rotational entropy is:
    S(rot) = R*(ln(qrot/sn)+1.5)
    R    = 8.31441 J/mol/K = 1.987191683e-3 kcal/mol/K
    qrot = 36623.5371550
    sn is the rotational symmetry number. We have assumed 3 here
       if it is different for your molecule then you should correct
       the printed rotational entropy by manually evaluating the equation
       as given above

For convenience we print out the resulting values for sn=1 - 12:
 sn= 1  qrot/sn=   36623.5372 T*S(rot)=     7.11 kcal/mol T*S(tot)=    20.21 kcal/mol
 sn= 2  qrot/sn=   18311.7686 T*S(rot)=     6.70 kcal/mol T*S(tot)=    19.80 kcal/mol
 sn= 3  qrot/sn=   12207.8457 T*S(rot)=     6.46 kcal/mol T*S(tot)=    19.56 kcal/mol
 sn= 4  qrot/sn=    9155.8843 T*S(rot)=     6.29 kcal/mol T*S(tot)=    19.39 kcal/mol
 sn= 5  qrot/sn=    7324.7074 T*S(rot)=     6.16 kcal/mol T*S(tot)=    19.26 kcal/mol
 sn= 6  qrot/sn=    6103.9229 T*S(rot)=     6.05 kcal/mol T*S(tot)=    19.15 kcal/mol
 sn= 7  qrot/sn=    5231.9339 T*S(rot)=     5.96 kcal/mol T*S(tot)=    19.06 kcal/mol
 sn= 8  qrot/sn=    4577.9421 T*S(rot)=     5.88 kcal/mol T*S(tot)=    18.98 kcal/mol
 sn= 9  qrot/sn=    4069.2819 T*S(rot)=     5.81 kcal/mol T*S(tot)=    18.91 kcal/mol
 sn=10  qrot/sn=    3662.3537 T*S(rot)=     5.75 kcal/mol T*S(tot)=    18.85 kcal/mol
 sn=11  qrot/sn=    3329.4125 T*S(rot)=     5.69 kcal/mol T*S(tot)=    18.79 kcal/mol
 sn=12  qrot/sn=    3051.9614 T*S(rot)=     5.64 kcal/mol T*S(tot)=    18.74 kcal/mol

-------------------
GIBBS FREE ENTHALPY
-------------------

The Gibbs free enthalpy is G = H - T*S

Total enthalpy                    ...   -228.90690703 Eh
Total entropy correction          ...     -0.03117109 Eh    -19.56 kcal/mol
-----------------------------------------------------------------------
Final Gibbs free enthalpy         ...   -228.93807811 Eh

For completeness - the Gibbs free enthalpy minus the electronic energy
G-E(el)                           ...      0.03579568 Eh     22.46 kcal/mol

                             ****ORCA TERMINATED NORMALLY****
TOTAL RUN TIME: 0 days 0 hours 19 minutes 58 seconds 921 msec
