                         Program Version 4.0.1 -  RELEASE  -
|  1> ! B3LYP 6-31G(d,p) Freq
|  2>
|  3> * xyzfile 0 1 etano.xyz
|  4>
|  5>                          ****END OF INPUT****

CARTESIAN COORDINATES (ANGSTROEM)
---------------------------------
  C     -5.184490   -0.506510    0.000000
  C     -4.086920    0.533520    0.000000
  H     -5.926020   -0.282780    0.772720
  H     -4.771940   -1.500700    0.196000
  H     -5.692520   -0.529200   -0.968710
  H     -3.578890    0.556200    0.968720
  H     -4.499470    1.527710   -0.195990
  H     -3.345390    0.309790   -0.772720

 Total Charge           Charge          ....    0
 Multiplicity           Mult            ....    1
 Number of Electrons    NEL             ....   18
 Basis Dimension        Dim             ....   58

ORBITAL ENERGIES
----------------

  NO   OCC          E(Eh)            E(eV)
   0   2.0000     -10.162478      -276.5351
   1   2.0000     -10.162309      -276.5305
   2   2.0000      -0.748606       -20.3706
   3   2.0000      -0.605211       -16.4686
   4   2.0000      -0.429899       -11.6981
   5   2.0000      -0.429862       -11.6971
   6   2.0000      -0.358486        -9.7549
   7   2.0000      -0.335151        -9.1199
   8   2.0000      -0.335101        -9.1186
   9   0.0000       0.106044         2.8856
  10   0.0000       0.163868         4.4591
  11   0.0000       0.167408         4.5554
  12   0.0000       0.167781         4.5656
  13   0.0000       0.191385         5.2079

MULLIKEN ATOMIC CHARGES
-----------------------
   0 C :   -0.300929
   1 C :   -0.300928
   2 H :    0.101732
   3 H :    0.098780
   4 H :    0.100417
   5 H :    0.100415
   6 H :    0.098781
   7 H :    0.101732
Sum of atomic charges:   -0.0000000

LOEWDIN ATOMIC CHARGES
----------------------
   0 C :   -0.199586
   1 C :   -0.199586
   2 H :    0.066932
   3 H :    0.066108
   4 H :    0.066546
   5 H :    0.066546
   6 H :    0.066108
   7 H :    0.066932

  Mayer bond orders larger than 0.1
B(  0-C ,  1-C ) :   1.0207 B(  0-C ,  2-H ) :   0.9718 B(  0-C ,  3-H ) :   0.9717
B(  0-C ,  4-H ) :   0.9718 B(  1-C ,  5-H ) :   0.9718 B(  1-C ,  6-H ) :   0.9717
B(  1-C ,  7-H ) :   0.9718

FINAL SINGLE POINT ENERGY       -79.771517603019

DIPOLE MOMENT
-------------
                                X             Y             Z
Electronic contribution:     -0.00000       0.00001      -0.00002
Nuclear contribution   :      0.00000      -0.00001       0.00001
                        -----------------------------------------
Total Dipole Moment    :     -0.00000      -0.00000      -0.00000
                        -----------------------------------------
Magnitude (a.u.)       :      0.00000
Magnitude (Debye)      :      0.00001

VIBRATIONAL FREQUENCIES
-----------------------

   0:         0.00 cm**-1
   1:         0.00 cm**-1
   2:         0.00 cm**-1
   3:         0.00 cm**-1
   4:         0.00 cm**-1
   5:         0.00 cm**-1
   6:       334.86 cm**-1
   7:       833.74 cm**-1
   8:       834.18 cm**-1
   9:      1055.83 cm**-1
  10:      1237.42 cm**-1
  11:      1237.49 cm**-1
  12:      1412.35 cm**-1
  13:      1439.96 cm**-1
  14:      1512.18 cm**-1
  15:      1512.59 cm**-1
  16:      1518.13 cm**-1
  17:      1518.33 cm**-1
  18:      3048.35 cm**-1
  19:      3048.77 cm**-1
  20:      3109.11 cm**-1
  21:      3109.58 cm**-1
  22:      3134.04 cm**-1
  23:      3134.46 cm**-1

IR SPECTRUM
-----------

 Mode    freq (cm**-1)   T**2         TX         TY         TZ
-------------------------------------------------------------------
   6:       334.86    0.000901  ( -0.013755   0.026378  -0.004052)
   7:       833.74    3.914978  (  0.971505  -1.070258   1.351186)
   8:       834.18    3.559743  (  0.870635  -1.009372  -1.335255)
   9:      1055.83    0.000000  (  0.000016   0.000011   0.000006)
  10:      1237.42    0.000000  (  0.000027  -0.000012   0.000000)
  11:      1237.49    0.000000  ( -0.000025   0.000032   0.000025)
  12:      1412.35    0.605073  (  0.579904   0.516665  -0.042907)
  13:      1439.96    0.000000  ( -0.000021  -0.000047   0.000031)
  14:      1512.18    0.000000  ( -0.000385   0.000373   0.000005)
  15:      1512.59    0.000001  ( -0.000552   0.000581   0.000422)
  16:      1518.13    7.087772  (  0.348655  -0.358493  -2.614898)
  17:      1518.33    6.556350  (  1.760978  -1.814334   0.404350)
  18:      3048.35    0.036327  (  0.137991   0.131459   0.001906)
  19:      3048.77   58.444663  ( -5.507625  -5.301954  -0.003243)
  20:      3109.11    0.000028  ( -0.001520  -0.001154   0.004968)
  21:      3109.58    0.000059  ( -0.000759   0.003356  -0.006889)
  22:      3134.04   70.461175  (  5.483037  -5.751989   2.704088)
  23:      3134.46   70.048468  ( -1.860554   1.943590   7.925230)

--------------------------
THERMOCHEMISTRY AT 298.15K
--------------------------

Temperature         ... 298.15 K
Pressure            ... 1.00 atm
Total Mass          ... 30.07 AMU

Throughout the following assumptions are being made:
  (1) The electronic state is orbitally nondegenerate
  (2) There are no thermally accessible electronically excited states
  (3) Hindered rotations indicated by low frequency modes are not
      treated as such but are treated as vibrations and this may
      cause some error
  (4) All equations used are the standard statistical mechanics
      equations for an ideal gas
  (5) All vibrations are strictly harmonic

freq.     334.86  E(vib)   ...       0.24
freq.     833.74  E(vib)   ...       0.04
freq.     834.18  E(vib)   ...       0.04
freq.    1055.83  E(vib)   ...       0.02
freq.    1237.42  E(vib)   ...       0.01
freq.    1237.49  E(vib)   ...       0.01
freq.    1412.35  E(vib)   ...       0.00
freq.    1439.96  E(vib)   ...       0.00
freq.    1512.18  E(vib)   ...       0.00
freq.    1512.59  E(vib)   ...       0.00
freq.    1518.13  E(vib)   ...       0.00
freq.    1518.33  E(vib)   ...       0.00
freq.    3048.35  E(vib)   ...       0.00
freq.    3048.77  E(vib)   ...       0.00
freq.    3109.11  E(vib)   ...       0.00
freq.    3109.58  E(vib)   ...       0.00
freq.    3134.04  E(vib)   ...       0.00
freq.    3134.46  E(vib)   ...       0.00

------------
INNER ENERGY
------------

The inner energy is: U= E(el) + E(ZPE) + E(vib) + E(rot) + E(trans)
    E(el)   - is the total energy from the electronic structure calculation
              = E(kin-el) + E(nuc-el) + E(el-el) + E(nuc-nuc)
    E(ZPE)  - the the zero temperature vibrational energy from the frequency calculation
    E(vib)  - the the finite temperature correction to E(ZPE) due to population
              of excited vibrational states
    E(rot)  - is the rotational thermal energy
    E(trans)- is the translational thermal energy

Summary of contributions to the inner energy U:
Electronic energy                ...    -79.77151760 Eh
Zero point energy                ...      0.07525102 Eh      47.22 kcal/mol
Thermal vibrational correction   ...      0.00060703 Eh       0.38 kcal/mol
Thermal rotational correction    ...      0.00141627 Eh       0.89 kcal/mol
Thermal translational correction ...      0.00141627 Eh       0.89 kcal/mol
-----------------------------------------------------------------------
Total thermal energy                    -79.69282701 Eh

Summary of corrections to the electronic energy:
(perhaps to be used in another calculation)
Total thermal correction                  0.00343957 Eh       2.16 kcal/mol
Non-thermal (ZPE) correction              0.07525102 Eh      47.22 kcal/mol
-----------------------------------------------------------------------
Total correction                          0.07869059 Eh      49.38 kcal/mol

--------
ENTHALPY
--------

The enthalpy is H = U + kB*T
                kB is Boltzmann's constant
Total free energy                 ...    -79.69282701 Eh
Thermal Enthalpy correction       ...      0.00094421 Eh       0.59 kcal/mol
-----------------------------------------------------------------------
Total Enthalpy                    ...    -79.69188280 Eh

Vibrational entropy computed according to the QRRHO of S. Grimme
Chem.Eur.J. 2012 18 9955

-------
ENTROPY
-------

The entropy contributions are T*S = T*(S(el)+S(vib)+S(rot)+S(trans)
     S(el)   - electronic entropy
     S(vib)  - vibrational entropy
     S(rot)  - rotational entropy
     S(trans)- translational entropy
The entropies will be listed as mutliplied by the temperature to get
units of energy

Electronic entropy                ...      0.00000000 Eh      0.00 kcal/mol
Vibrational entropy               ...      0.00086705 Eh      0.54 kcal/mol
Rotational entropy                ...      0.00837561 Eh      5.26 kcal/mol
Translational entropy             ...      0.01716939 Eh     10.77 kcal/mol
-----------------------------------------------------------------------
Final entropy term                ...      0.02641205 Eh     16.57 kcal/mol

CAUTION: The rotational entropy is not quite correctly treated here
         because it includes a symmetry number that is not yet correctly
         implemented in ORCA!
For a nonlinear molecule the correct rotational entropy is:
    S(rot) = R*(ln(qrot/sn)+1.5)
    R    = 8.31441 J/mol/K = 1.987191683e-3 kcal/mol/K
    qrot = 4766.5753016
    sn is the rotational symmetry number. We have assumed 3 here
       if it is different for your molecule then you should correct
       the printed rotational entropy by manually evaluating the equation
       as given above

For convenience we print out the resulting values for sn=1 - 12:
 sn= 1  qrot/sn=    4766.5753 T*S(rot)=     5.91 kcal/mol T*S(tot)=    17.22 kcal/mol
 sn= 2  qrot/sn=    2383.2877 T*S(rot)=     5.50 kcal/mol T*S(tot)=    16.81 kcal/mol
 sn= 3  qrot/sn=    1588.8584 T*S(rot)=     5.26 kcal/mol T*S(tot)=    16.57 kcal/mol
 sn= 4  qrot/sn=    1191.6438 T*S(rot)=     5.09 kcal/mol T*S(tot)=    16.40 kcal/mol
 sn= 5  qrot/sn=     953.3151 T*S(rot)=     4.95 kcal/mol T*S(tot)=    16.27 kcal/mol
 sn= 6  qrot/sn=     794.4292 T*S(rot)=     4.85 kcal/mol T*S(tot)=    16.16 kcal/mol
 sn= 7  qrot/sn=     680.9393 T*S(rot)=     4.75 kcal/mol T*S(tot)=    16.07 kcal/mol
 sn= 8  qrot/sn=     595.8219 T*S(rot)=     4.67 kcal/mol T*S(tot)=    15.99 kcal/mol
 sn= 9  qrot/sn=     529.6195 T*S(rot)=     4.60 kcal/mol T*S(tot)=    15.92 kcal/mol
 sn=10  qrot/sn=     476.6575 T*S(rot)=     4.54 kcal/mol T*S(tot)=    15.86 kcal/mol
 sn=11  qrot/sn=     433.3250 T*S(rot)=     4.49 kcal/mol T*S(tot)=    15.80 kcal/mol
 sn=12  qrot/sn=     397.2146 T*S(rot)=     4.43 kcal/mol T*S(tot)=    15.75 kcal/mol

-------------------
GIBBS FREE ENTHALPY
-------------------

The Gibbs free enthalpy is G = H - T*S

Total enthalpy                    ...    -79.69188280 Eh
Total entropy correction          ...     -0.02641205 Eh    -16.57 kcal/mol
-----------------------------------------------------------------------
Final Gibbs free enthalpy         ...    -79.71829486 Eh

For completeness - the Gibbs free enthalpy minus the electronic energy
G-E(el)                           ...      0.05322275 Eh     33.40 kcal/mol

                             ****ORCA TERMINATED NORMALLY****
TOTAL RUN TIME: 0 days 0 hours 1 minutes 7 seconds 177 msec
