                         Program Version 4.0.1 -  RELEASE  -
|  1> ! B3LYP 6-31G(d,p) Freq
|  2>
|  3> * xyzfile 0 1 etanoico.xyz
|  4>
|  5>                          ****END OF INPUT****

CARTESIAN COORDINATES (ANGSTROEM)
---------------------------------
  C     -4.696170   -0.439770   -0.019030
  C     -3.670950    0.644970   -0.152210
  H     -5.699570   -0.008820   -0.060500
  H     -4.545840   -0.978930    0.919560
  H     -4.586220   -1.145730   -0.847270
  O     -2.850420    0.710780   -1.052990
  O     -3.744890    1.559490    0.840060
  H     -4.450250    1.376070    1.488840

 Total Charge           Charge          ....    0
 Multiplicity           Mult            ....    1
 Number of Electrons    NEL             ....   32
 Basis Dimension        Dim             ....   76

ORBITAL ENERGIES
----------------

  NO   OCC          E(Eh)            E(eV)
   0   2.0000     -19.190325      -522.1953
   1   2.0000     -19.126447      -520.4571
   2   2.0000     -10.315895      -280.7098
   3   2.0000     -10.199391      -277.5395
   4   2.0000      -1.094362       -29.7791
   5   2.0000      -1.008940       -27.4547
   6   2.0000      -0.755943       -20.5703
   7   2.0000      -0.621433       -16.9101
   8   2.0000      -0.509598       -13.8669
   9   2.0000      -0.471629       -12.8337
  10   2.0000      -0.458312       -12.4713
  11   2.0000      -0.411873       -11.2076
  12   2.0000      -0.394378       -10.7316
  13   2.0000      -0.366241        -9.9659
  14   2.0000      -0.311052        -8.4641
  15   2.0000      -0.265794        -7.2326
  16   0.0000       0.011989         0.3262
  17   0.0000       0.048365         1.3161
  18   0.0000       0.118668         3.2291
  19   0.0000       0.152218         4.1421
  20   0.0000       0.162093         4.4108

MULLIKEN ATOMIC CHARGES
-----------------------
   0 C :   -0.421282
   1 C :    0.546420
   2 H :    0.132895
   3 H :    0.135155
   4 H :    0.152580
   5 O :   -0.408439
   6 O :   -0.462136
   7 H :    0.324806
Sum of atomic charges:   -0.0000000

LOEWDIN ATOMIC CHARGES
----------------------
   0 C :   -0.238427
   1 C :    0.146700
   2 H :    0.089082
   3 H :    0.089767
   4 H :    0.098114
   5 O :   -0.215417
   6 O :   -0.157164
   7 H :    0.187345

  Mayer bond orders larger than 0.1
B(  0-C ,  1-C ) :   0.9733 B(  0-C ,  2-H ) :   0.9467 B(  0-C ,  3-H ) :   0.9464
B(  0-C ,  4-H ) :   0.9549 B(  1-C ,  5-O ) :   1.9807 B(  1-C ,  6-O ) :   1.0607
B(  6-O ,  7-H ) :   0.8573

FINAL SINGLE POINT ENERGY      -228.956673579563

DIPOLE MOMENT
-------------
                                X             Y             Z
Electronic contribution:      2.70523       2.54774      -0.65912
Nuclear contribution   :     -3.98759      -3.07184       1.65354
                        -----------------------------------------
Total Dipole Moment    :     -1.28237      -0.52411       0.99442
                        -----------------------------------------
Magnitude (a.u.)       :      1.70529
Magnitude (Debye)      :      4.33452

VIBRATIONAL FREQUENCIES
-----------------------

   0:         0.00 cm**-1
   1:         0.00 cm**-1
   2:         0.00 cm**-1
   3:         0.00 cm**-1
   4:         0.00 cm**-1
   5:         0.00 cm**-1
   6:       116.80 cm**-1
   7:       445.22 cm**-1
   8:       522.87 cm**-1
   9:       600.36 cm**-1
  10:       637.55 cm**-1
  11:       900.21 cm**-1
  12:      1005.25 cm**-1
  13:      1073.28 cm**-1
  14:      1215.69 cm**-1
  15:      1337.74 cm**-1
  16:      1413.22 cm**-1
  17:      1471.66 cm**-1
  18:      1507.94 cm**-1
  19:      1807.15 cm**-1
  20:      3059.59 cm**-1
  21:      3144.23 cm**-1
  22:      3148.16 cm**-1
  23:      3690.42 cm**-1

IR SPECTRUM
-----------

 Mode    freq (cm**-1)   T**2         TX         TY         TZ
-------------------------------------------------------------------
   6:       116.80    0.019001  (  0.068948  -0.061966   0.102016)
   7:       445.22    3.775543  ( -0.557596  -1.585216  -0.975561)
   8:       522.87   84.709893  ( -5.896073   4.980816  -5.013749)
   9:       600.36    6.872857  ( -1.983469  -1.447514   0.918373)
  10:       637.55   27.579536  ( -3.389239   2.821377  -2.851741)
  11:       900.21   17.154265  ( -1.183970   2.041319   3.403747)
  12:      1005.25    2.113838  ( -0.209895  -1.126334  -0.895072)
  13:      1073.28    4.505061  ( -1.389963   1.119771  -1.148555)
  14:      1215.69   19.820556  ( -0.894019   2.523177   3.557368)
  15:      1337.74  327.298591  ( -0.202237 -12.966697 -12.614375)
  16:      1413.22  119.198432  ( -3.329242  -9.104368  -5.022455)
  17:      1471.66    3.910508  ( -1.496684  -1.043953   0.761975)
  18:      1507.94    8.815218  (  1.888712  -1.586467   1.652606)
  19:      1807.15  247.617699  ( 10.986135   1.823730 -11.117398)
  20:      3059.59    3.069120  (  1.354319   0.688245  -0.872501)
  21:      3144.23    6.971430  ( -0.767331   1.410925   2.095691)
  22:      3148.16    8.486237  (  1.822250  -1.524700   1.685507)
  23:      3690.42   42.374658  ( -3.743429   0.853351   5.256728)

--------------------------
THERMOCHEMISTRY AT 298.15K
--------------------------

Temperature         ... 298.15 K
Pressure            ... 1.00 atm
Total Mass          ... 60.05 AMU

Throughout the following assumptions are being made:
  (1) The electronic state is orbitally nondegenerate
  (2) There are no thermally accessible electronically excited states
  (3) Hindered rotations indicated by low frequency modes are not
      treated as such but are treated as vibrations and this may
      cause some error
  (4) All equations used are the standard statistical mechanics
      equations for an ideal gas
  (5) All vibrations are strictly harmonic

freq.     116.80  E(vib)   ...       0.44
freq.     445.22  E(vib)   ...       0.17
freq.     522.87  E(vib)   ...       0.13
freq.     600.36  E(vib)   ...       0.10
freq.     637.55  E(vib)   ...       0.09
freq.     900.21  E(vib)   ...       0.03
freq.    1005.25  E(vib)   ...       0.02
freq.    1073.28  E(vib)   ...       0.02
freq.    1215.69  E(vib)   ...       0.01
freq.    1337.74  E(vib)   ...       0.01
freq.    1413.22  E(vib)   ...       0.00
freq.    1471.66  E(vib)   ...       0.00
freq.    1507.94  E(vib)   ...       0.00
freq.    1807.15  E(vib)   ...       0.00
freq.    3059.59  E(vib)   ...       0.00
freq.    3144.23  E(vib)   ...       0.00
freq.    3148.16  E(vib)   ...       0.00
freq.    3690.42  E(vib)   ...       0.00

------------
INNER ENERGY
------------

The inner energy is: U= E(el) + E(ZPE) + E(vib) + E(rot) + E(trans)
    E(el)   - is the total energy from the electronic structure calculation
              = E(kin-el) + E(nuc-el) + E(el-el) + E(nuc-nuc)
    E(ZPE)  - the the zero temperature vibrational energy from the frequency calculation
    E(vib)  - the the finite temperature correction to E(ZPE) due to population
              of excited vibrational states
    E(rot)  - is the rotational thermal energy
    E(trans)- is the translational thermal energy

Summary of contributions to the inner energy U:
Electronic energy                ...   -228.95667358 Eh
Zero point energy                ...      0.06173229 Eh      38.74 kcal/mol
Thermal vibrational correction   ...      0.00164065 Eh       1.03 kcal/mol
Thermal rotational correction    ...      0.00141627 Eh       0.89 kcal/mol
Thermal translational correction ...      0.00141627 Eh       0.89 kcal/mol
-----------------------------------------------------------------------
Total thermal energy                   -228.89046809 Eh

Summary of corrections to the electronic energy:
(perhaps to be used in another calculation)
Total thermal correction                  0.00447319 Eh       2.81 kcal/mol
Non-thermal (ZPE) correction              0.06173229 Eh      38.74 kcal/mol
-----------------------------------------------------------------------
Total correction                          0.06620549 Eh      41.54 kcal/mol

--------
ENTHALPY
--------

The enthalpy is H = U + kB*T
                kB is Boltzmann's constant
Total free energy                 ...   -228.89046809 Eh
Thermal Enthalpy correction       ...      0.00094421 Eh       0.59 kcal/mol
-----------------------------------------------------------------------
Total Enthalpy                    ...   -228.88952388 Eh

Vibrational entropy computed according to the QRRHO of S. Grimme
Chem.Eur.J. 2012 18 9955

-------
ENTROPY
-------

The entropy contributions are T*S = T*(S(el)+S(vib)+S(rot)+S(trans)
     S(el)   - electronic entropy
     S(vib)  - vibrational entropy
     S(rot)  - rotational entropy
     S(trans)- translational entropy
The entropies will be listed as mutliplied by the temperature to get
units of energy

Electronic entropy                ...      0.00000000 Eh      0.00 kcal/mol
Vibrational entropy               ...      0.00268823 Eh      1.69 kcal/mol
Rotational entropy                ...      0.01030086 Eh      6.46 kcal/mol
Translational entropy             ...      0.01814900 Eh     11.39 kcal/mol
-----------------------------------------------------------------------
Final entropy term                ...      0.03113808 Eh     19.54 kcal/mol

CAUTION: The rotational entropy is not quite correctly treated here
         because it includes a symmetry number that is not yet correctly
         implemented in ORCA!
For a nonlinear molecule the correct rotational entropy is:
    S(rot) = R*(ln(qrot/sn)+1.5)
    R    = 8.31441 J/mol/K = 1.987191683e-3 kcal/mol/K
    qrot = 36623.5371550
    sn is the rotational symmetry number. We have assumed 3 here
       if it is different for your molecule then you should correct
       the printed rotational entropy by manually evaluating the equation
       as given above

For convenience we print out the resulting values for sn=1 - 12:
 sn= 1  qrot/sn=   36623.5372 T*S(rot)=     7.11 kcal/mol T*S(tot)=    20.19 kcal/mol
 sn= 2  qrot/sn=   18311.7686 T*S(rot)=     6.70 kcal/mol T*S(tot)=    19.78 kcal/mol
 sn= 3  qrot/sn=   12207.8457 T*S(rot)=     6.46 kcal/mol T*S(tot)=    19.54 kcal/mol
 sn= 4  qrot/sn=    9155.8843 T*S(rot)=     6.29 kcal/mol T*S(tot)=    19.37 kcal/mol
 sn= 5  qrot/sn=    7324.7074 T*S(rot)=     6.16 kcal/mol T*S(tot)=    19.24 kcal/mol
 sn= 6  qrot/sn=    6103.9229 T*S(rot)=     6.05 kcal/mol T*S(tot)=    19.13 kcal/mol
 sn= 7  qrot/sn=    5231.9339 T*S(rot)=     5.96 kcal/mol T*S(tot)=    19.04 kcal/mol
 sn= 8  qrot/sn=    4577.9421 T*S(rot)=     5.88 kcal/mol T*S(tot)=    18.96 kcal/mol
 sn= 9  qrot/sn=    4069.2819 T*S(rot)=     5.81 kcal/mol T*S(tot)=    18.89 kcal/mol
 sn=10  qrot/sn=    3662.3537 T*S(rot)=     5.75 kcal/mol T*S(tot)=    18.83 kcal/mol
 sn=11  qrot/sn=    3329.4125 T*S(rot)=     5.69 kcal/mol T*S(tot)=    18.77 kcal/mol
 sn=12  qrot/sn=    3051.9614 T*S(rot)=     5.64 kcal/mol T*S(tot)=    18.72 kcal/mol

-------------------
GIBBS FREE ENTHALPY
-------------------

The Gibbs free enthalpy is G = H - T*S

Total enthalpy                    ...   -228.88952388 Eh
Total entropy correction          ...     -0.03113808 Eh    -19.54 kcal/mol
-----------------------------------------------------------------------
Final Gibbs free enthalpy         ...   -228.92066197 Eh

For completeness - the Gibbs free enthalpy minus the electronic energy
G-E(el)                           ...      0.03601161 Eh     22.60 kcal/mol

                             ****ORCA TERMINATED NORMALLY****
TOTAL RUN TIME: 0 days 0 hours 2 minutes 42 seconds 343 msec
