                         Program Version 4.0.1 -  RELEASE  -
|  1> ! B3LYP 6-31G(d,p) CPCM(toluene) NumFreq
|  2>
|  3> * xyzfile 0 1 p-nitrotolueno.xyz
|  4>
|  5>                          ****END OF INPUT****

CARTESIAN COORDINATES (ANGSTROEM)
---------------------------------
  C     -4.451380    1.429700   -0.135670
  C     -4.343790    0.036930   -0.146640
  C     -3.080750   -0.557580   -0.037240
  C     -1.930730    0.231590    0.086890
  C     -2.049650    1.623480    0.096880
  C     -3.306580    2.231460   -0.027260
  H     -1.153600    2.232910    0.201150
  C     -3.433030    3.726860    0.018760
  H     -5.435920    1.887800   -0.213450
  H     -5.246510   -0.563500   -0.237370
  N     -2.961760   -2.020520   -0.047420
  H     -0.943580   -0.216440    0.179020
  H     -2.530140    4.208230   -0.371420
  H     -3.592250    4.056890    1.049880
  H     -4.273130    4.065600   -0.596620
  O     -4.003350   -2.683910   -0.155250
  O     -1.826520   -2.508290    0.052360

 Total Charge           Charge          ....    0
 Multiplicity           Mult            ....    1
 Number of Electrons    NEL             ....   72
 Basis Dimension        Dim             ....  175

ORBITAL ENERGIES
----------------

  NO   OCC          E(Eh)            E(eV)
   0   2.0000     -19.175759      -521.7989
   1   2.0000     -19.175645      -521.7958
   2   2.0000     -14.565488      -396.3471
   3   2.0000     -10.241974      -278.6983
   4   2.0000     -10.212541      -277.8974
   5   2.0000     -10.208661      -277.7918
   6   2.0000     -10.208627      -277.7909
   7   2.0000     -10.198911      -277.5265
   8   2.0000     -10.198831      -277.5243
   9   2.0000     -10.183625      -277.1105
  10   2.0000      -1.214700       -33.0537
  11   2.0000      -1.043528       -28.3959
  12   2.0000      -0.881625       -23.9902
  13   2.0000      -0.812406       -22.1067
  14   2.0000      -0.762050       -20.7364
  15   2.0000      -0.735690       -20.0192
  16   2.0000      -0.658028       -17.9059
  17   2.0000      -0.623743       -16.9729
  18   2.0000      -0.582967       -15.8634
  19   2.0000      -0.553420       -15.0593
  20   2.0000      -0.524703       -14.2779
  21   2.0000      -0.510796       -13.8995
  22   2.0000      -0.475370       -12.9355
  23   2.0000      -0.471499       -12.8302
  24   2.0000      -0.453442       -12.3388
  25   2.0000      -0.435516       -11.8510
  26   2.0000      -0.430350       -11.7104
  27   2.0000      -0.390893       -10.6367
  28   2.0000      -0.369739       -10.0611
  29   2.0000      -0.367006        -9.9867
  30   2.0000      -0.355441        -9.6720
  31   2.0000      -0.308123        -8.3845
  32   2.0000      -0.306385        -8.3371
  33   2.0000      -0.289526        -7.8784
  34   2.0000      -0.267652        -7.2832
  35   2.0000      -0.263373        -7.1668
  36   0.0000      -0.086805        -2.3621
  37   0.0000      -0.018782        -0.5111
  38   0.0000       0.007952         0.2164
  39   0.0000       0.087547         2.3823
  40   0.0000       0.120306         3.2737

MULLIKEN ATOMIC CHARGES
-----------------------
   0 C :   -0.131212
   1 C :   -0.094592
   2 C :    0.221734
   3 C :   -0.094184
   4 C :   -0.130154
   5 C :    0.123082
   6 H :    0.115228
   7 C :   -0.375553
   8 H :    0.114095
   9 H :    0.140717
  10 N :    0.381695
  11 H :    0.139682
  12 H :    0.125293
  13 H :    0.142085
  14 H :    0.126655
  15 O :   -0.401531
  16 O :   -0.403039
Sum of atomic charges:   -0.0000000

LOEWDIN ATOMIC CHARGES
----------------------
   0 C :   -0.072236
   1 C :   -0.041705
   2 C :   -0.018412
   3 C :   -0.041809
   4 C :   -0.072266
   5 C :    0.016418
   6 H :    0.086795
   7 C :   -0.192877
   8 H :    0.086496
   9 H :    0.098814
  10 N :    0.269108
  11 H :    0.098636
  12 H :    0.083848
  13 H :    0.093107
  14 H :    0.084616
  15 O :   -0.239154
  16 O :   -0.239377

  Mayer bond orders larger than 0.1
B(  0-C ,  1-C ) :   1.4338 B(  0-C ,  5-C ) :   1.4152 B(  0-C ,  8-H ) :   0.9372
B(  1-C ,  2-C ) :   1.3769 B(  1-C ,  9-H ) :   0.9230 B(  2-C ,  3-C ) :   1.3814
B(  2-C , 10-N ) :   0.8236 B(  3-C ,  4-C ) :   1.4318 B(  3-C , 11-H ) :   0.9229
B(  4-C ,  5-C ) :   1.4156 B(  4-C ,  6-H ) :   0.9367 B(  5-C ,  7-C ) :   1.0016
B(  7-C , 12-H ) :   0.9569 B(  7-C , 13-H ) :   0.9437 B(  7-C , 14-H ) :   0.9563
B( 10-N , 15-O ) :   1.5255 B( 10-N , 16-O ) :   1.5222 B( 15-O , 16-O ) :   0.2595

FINAL SINGLE POINT ENERGY      -475.808415244333

DIPOLE MOMENT
-------------
                                X             Y             Z
Electronic contribution:      0.96531     -11.76571      -0.15371
Nuclear contribution   :     -1.16636      14.17224       0.20283
                        -----------------------------------------
Total Dipole Moment    :     -0.20105       2.40653       0.04912
                        -----------------------------------------
Magnitude (a.u.)       :      2.41541
Magnitude (Debye)      :      6.13949

VIBRATIONAL FREQUENCIES
-----------------------

   0:         0.00 cm**-1
   1:         0.00 cm**-1
   2:         0.00 cm**-1
   3:         0.00 cm**-1
   4:         0.00 cm**-1
   5:         0.00 cm**-1
   6:        77.76 cm**-1
   7:       101.93 cm**-1
   8:       104.63 cm**-1
   9:       223.94 cm**-1
  10:       289.14 cm**-1
  11:       358.82 cm**-1
  12:       359.93 cm**-1
  13:       427.93 cm**-1
  14:       491.40 cm**-1
  15:       533.96 cm**-1
  16:       625.13 cm**-1
  17:       645.07 cm**-1
  18:       699.88 cm**-1
  19:       761.10 cm**-1
  20:       800.88 cm**-1
  21:       861.44 cm**-1
  22:       863.03 cm**-1
  23:       864.76 cm**-1
  24:       997.58 cm**-1
  25:      1002.29 cm**-1
  26:      1017.43 cm**-1
  27:      1026.89 cm**-1
  28:      1067.30 cm**-1
  29:      1127.66 cm**-1
  30:      1140.34 cm**-1
  31:      1203.11 cm**-1
  32:      1245.94 cm**-1
  33:      1329.53 cm**-1
  34:      1357.34 cm**-1
  35:      1360.36 cm**-1
  36:      1416.11 cm**-1
  37:      1431.77 cm**-1
  38:      1482.97 cm**-1
  39:      1497.90 cm**-1
  40:      1532.79 cm**-1
  41:      1566.71 cm**-1
  42:      1637.36 cm**-1
  43:      1641.55 cm**-1
  44:      3042.06 cm**-1
  45:      3115.81 cm**-1
  46:      3121.39 cm**-1
  47:      3173.90 cm**-1
  48:      3175.10 cm**-1
  49:      3197.87 cm**-1
  50:      3199.55 cm**-1

IR SPECTRUM
-----------

 Mode    freq (cm**-1)   T**2         TX         TY         TZ
-------------------------------------------------------------------
   6:        77.76    0.458899  (  0.670796   0.094501   0.001354)
   7:       101.93    0.003456  ( -0.050823  -0.028375   0.008230)
   8:       104.63    0.833685  (  0.366847  -0.121713  -0.827221)
   9:       223.94    1.633114  (  1.265433   0.103225   0.145387)
  10:       289.14    5.286849  ( -0.600516  -0.272177   2.202759)
  11:       358.82    0.239124  ( -0.434780  -0.219772  -0.042311)
  12:       359.93    0.662472  (  0.203223  -0.787858  -0.021270)
  13:       427.93    0.079144  (  0.239501  -0.064650   0.132680)
  14:       491.40    5.598279  ( -0.548702   0.190398   2.293677)
  15:       533.96    1.831646  (  1.342579   0.113245   0.127687)
  16:       625.13    9.092746  ( -0.193477   3.007901  -0.088581)
  17:       645.07    0.762572  (  0.866567   0.062540   0.087874)
  18:       699.88    3.533409  (  0.042194  -0.190075  -1.869626)
  19:       761.10   42.646735  ( -1.083793  -0.015482   6.439867)
  20:       800.88   15.162173  ( -0.368512   3.874065  -0.134131)
  21:       861.44   31.878786  (  0.447914   4.582684  -3.267593)
  22:       863.03    0.724496  (  0.107339   0.790067  -0.297940)
  23:       864.76   26.277172  (  1.193487  -3.185955  -3.834378)
  24:       997.58    0.247165  (  0.344383  -0.350711  -0.074614)
  25:      1002.29    4.461714  (  1.321753  -0.318256  -1.616600)
  26:      1017.43    0.035126  ( -0.160595  -0.095204  -0.016474)
  27:      1026.89    3.720014  ( -0.110405   1.894681  -0.343522)
  28:      1067.30   29.830644  ( -0.832914   4.536028   2.925978)
  29:      1127.66   59.036620  ( -0.563196   7.662524  -0.071850)
  30:      1140.34    9.408699  (  3.052284   0.096997   0.287839)
  31:      1203.11   15.316775  (  0.352569  -3.897422  -0.050690)
  32:      1245.94    5.144149  (  0.124160  -2.238250  -0.344919)
  33:      1329.53    0.265673  ( -0.474210  -0.196328  -0.047462)
  34:      1357.34   22.142449  (  4.676944  -0.273135   0.440502)
  35:      1360.36  580.649772  (  1.900542 -24.020568  -0.223679)
  36:      1416.11    3.259794  ( -0.215028   1.735191   0.450189)
  37:      1431.77    0.288204  ( -0.499783  -0.195629  -0.012253)
  38:      1482.97    1.614025  (  1.267693   0.022465   0.080467)
  39:      1497.90    7.603205  ( -0.232191   0.234643   2.737560)
  40:      1532.79    9.978007  (  0.455666  -3.125020  -0.068022)
  41:      1566.71  290.525916  ( 16.907690   1.455322   1.593104)
  42:      1637.36   66.544692  ( -0.530995   8.139933   0.065012)
  43:      1641.55   38.526842  ( -6.163198  -0.419301  -0.604998)
  44:      3042.06   20.798979  (  0.246399  -4.546202   0.265171)
  45:      3115.81   17.216257  (  3.971722   0.156445   1.190466)
  46:      3121.39   15.479136  (  0.884551   1.412706  -3.563842)
  47:      3173.90    9.527723  (  2.784424   1.299113   0.294974)
  48:      3175.10    7.670233  (  1.714944  -2.163742   0.217768)
  49:      3197.87    0.742116  (  0.215895   0.833931   0.008003)
  50:      3199.55    1.705515  ( -0.255285   1.280511  -0.025208)

--------------------------
THERMOCHEMISTRY AT 298.15K
--------------------------

Temperature         ... 298.15 K
Pressure            ... 1.00 atm
Total Mass          ... 137.14 AMU

Throughout the following assumptions are being made:
  (1) The electronic state is orbitally nondegenerate
  (2) There are no thermally accessible electronically excited states
  (3) Hindered rotations indicated by low frequency modes are not
      treated as such but are treated as vibrations and this may
      cause some error
  (4) All equations used are the standard statistical mechanics
      equations for an ideal gas
  (5) All vibrations are strictly harmonic

freq.      77.76  E(vib)   ...       0.49
freq.     101.93  E(vib)   ...       0.46
freq.     104.63  E(vib)   ...       0.46
freq.     223.94  E(vib)   ...       0.33
freq.     289.14  E(vib)   ...       0.27
freq.     358.82  E(vib)   ...       0.22
freq.     359.93  E(vib)   ...       0.22
freq.     427.93  E(vib)   ...       0.18
freq.     491.40  E(vib)   ...       0.14
freq.     533.96  E(vib)   ...       0.13
freq.     625.13  E(vib)   ...       0.09
freq.     645.07  E(vib)   ...       0.09
freq.     699.88  E(vib)   ...       0.07
freq.     761.10  E(vib)   ...       0.06
freq.     800.88  E(vib)   ...       0.05
freq.     861.44  E(vib)   ...       0.04
freq.     863.03  E(vib)   ...       0.04
freq.     864.76  E(vib)   ...       0.04
freq.     997.58  E(vib)   ...       0.02
freq.    1002.29  E(vib)   ...       0.02
freq.    1017.43  E(vib)   ...       0.02
freq.    1026.89  E(vib)   ...       0.02
freq.    1067.30  E(vib)   ...       0.02
freq.    1127.66  E(vib)   ...       0.01
freq.    1140.34  E(vib)   ...       0.01
freq.    1203.11  E(vib)   ...       0.01
freq.    1245.94  E(vib)   ...       0.01
freq.    1329.53  E(vib)   ...       0.01
freq.    1357.34  E(vib)   ...       0.01
freq.    1360.36  E(vib)   ...       0.01
freq.    1416.11  E(vib)   ...       0.00
freq.    1431.77  E(vib)   ...       0.00
freq.    1482.97  E(vib)   ...       0.00
freq.    1497.90  E(vib)   ...       0.00
freq.    1532.79  E(vib)   ...       0.00
freq.    1566.71  E(vib)   ...       0.00
freq.    1637.36  E(vib)   ...       0.00
freq.    1641.55  E(vib)   ...       0.00
freq.    3042.06  E(vib)   ...       0.00
freq.    3115.81  E(vib)   ...       0.00
freq.    3121.39  E(vib)   ...       0.00
freq.    3173.90  E(vib)   ...       0.00
freq.    3175.10  E(vib)   ...       0.00
freq.    3197.87  E(vib)   ...       0.00
freq.    3199.55  E(vib)   ...       0.00

------------
INNER ENERGY
------------

The inner energy is: U= E(el) + E(ZPE) + E(vib) + E(rot) + E(trans)
    E(el)   - is the total energy from the electronic structure calculation
              = E(kin-el) + E(nuc-el) + E(el-el) + E(nuc-nuc)
    E(ZPE)  - the the zero temperature vibrational energy from the frequency calculation
    E(vib)  - the the finite temperature correction to E(ZPE) due to population
              of excited vibrational states
    E(rot)  - is the rotational thermal energy
    E(trans)- is the translational thermal energy

Summary of contributions to the inner energy U:
Electronic energy                ...   -475.80841524 Eh
Zero point energy                ...      0.13030970 Eh      81.77 kcal/mol
Thermal vibrational correction   ...      0.00566848 Eh       3.56 kcal/mol
Thermal rotational correction    ...      0.00141627 Eh       0.89 kcal/mol
Thermal translational correction ...      0.00141627 Eh       0.89 kcal/mol
-----------------------------------------------------------------------
Total thermal energy                   -475.66960452 Eh

Summary of corrections to the electronic energy:
(perhaps to be used in another calculation)
Total thermal correction                  0.00850103 Eh       5.33 kcal/mol
Non-thermal (ZPE) correction              0.13030970 Eh      81.77 kcal/mol
-----------------------------------------------------------------------
Total correction                          0.13881073 Eh      87.10 kcal/mol

--------
ENTHALPY
--------

The enthalpy is H = U + kB*T
                kB is Boltzmann's constant
Total free energy                 ...   -475.66960452 Eh
Thermal Enthalpy correction       ...      0.00094421 Eh       0.59 kcal/mol
-----------------------------------------------------------------------
Total Enthalpy                    ...   -475.66866031 Eh

Vibrational entropy computed according to the QRRHO of S. Grimme
Chem.Eur.J. 2012 18 9955

-------
ENTROPY
-------

The entropy contributions are T*S = T*(S(el)+S(vib)+S(rot)+S(trans)
     S(el)   - electronic entropy
     S(vib)  - vibrational entropy
     S(rot)  - rotational entropy
     S(trans)- translational entropy
The entropies will be listed as mutliplied by the temperature to get
units of energy

Electronic entropy                ...      0.00000000 Eh      0.00 kcal/mol
Vibrational entropy               ...      0.00958656 Eh      6.02 kcal/mol
Rotational entropy                ...      0.01294138 Eh      8.12 kcal/mol
Translational entropy             ...      0.01931853 Eh     12.12 kcal/mol
-----------------------------------------------------------------------
Final entropy term                ...      0.04184646 Eh     26.26 kcal/mol

CAUTION: The rotational entropy is not quite correctly treated here
         because it includes a symmetry number that is not yet correctly
         implemented in ORCA!
For a nonlinear molecule the correct rotational entropy is:
    S(rot) = R*(ln(qrot/sn)+1.5)
    R    = 8.31441 J/mol/K = 1.987191683e-3 kcal/mol/K
    qrot = 600232.2980204
    sn is the rotational symmetry number. We have assumed 3 here
       if it is different for your molecule then you should correct
       the printed rotational entropy by manually evaluating the equation
       as given above

For convenience we print out the resulting values for sn=1 - 12:
 sn= 1  qrot/sn=  600232.2980 T*S(rot)=     8.77 kcal/mol T*S(tot)=    26.91 kcal/mol
 sn= 2  qrot/sn=  300116.1490 T*S(rot)=     8.36 kcal/mol T*S(tot)=    26.50 kcal/mol
 sn= 3  qrot/sn=  200077.4327 T*S(rot)=     8.12 kcal/mol T*S(tot)=    26.26 kcal/mol
 sn= 4  qrot/sn=  150058.0745 T*S(rot)=     7.95 kcal/mol T*S(tot)=    26.09 kcal/mol
 sn= 5  qrot/sn=  120046.4596 T*S(rot)=     7.82 kcal/mol T*S(tot)=    25.96 kcal/mol
 sn= 6  qrot/sn=  100038.7163 T*S(rot)=     7.71 kcal/mol T*S(tot)=    25.85 kcal/mol
 sn= 7  qrot/sn=   85747.4711 T*S(rot)=     7.62 kcal/mol T*S(tot)=    25.76 kcal/mol
 sn= 8  qrot/sn=   75029.0373 T*S(rot)=     7.54 kcal/mol T*S(tot)=    25.68 kcal/mol
 sn= 9  qrot/sn=   66692.4776 T*S(rot)=     7.47 kcal/mol T*S(tot)=    25.61 kcal/mol
 sn=10  qrot/sn=   60023.2298 T*S(rot)=     7.41 kcal/mol T*S(tot)=    25.55 kcal/mol
 sn=11  qrot/sn=   54566.5725 T*S(rot)=     7.35 kcal/mol T*S(tot)=    25.49 kcal/mol
 sn=12  qrot/sn=   50019.3582 T*S(rot)=     7.30 kcal/mol T*S(tot)=    25.44 kcal/mol

-------------------
GIBBS FREE ENTHALPY
-------------------

                             ****ORCA TERMINATED NORMALLY****
TOTAL RUN TIME: 0 days 5 hours 13 minutes 29 seconds 46 msec
