                         Program Version 4.0.1 -  RELEASE  -
|  1> ! B3LYP 6-31G(d,p) CPCM(water) NumFreq
|  2>
|  3> * xyzfile 0 1 etanol.xyz
|  4>
|  5>                          ****END OF INPUT****

CARTESIAN COORDINATES (ANGSTROEM)
---------------------------------
  C     -4.700090   -0.410710    0.015500
  C     -3.793590    0.799580   -0.053880
  H     -5.689480   -0.136500    0.392070
  H     -4.272070   -1.176320    0.671050
  H     -4.812210   -0.866070   -0.974040
  O     -2.523780    0.398750   -0.546410
  H     -3.663510    1.239310    0.939490
  H     -4.210930    1.553750   -0.727750
  H     -1.966270    1.194760   -0.579340

 Total Charge           Charge          ....    0
 Multiplicity           Mult            ....    1
 Number of Electrons    NEL             ....   26
 Basis Dimension        Dim             ....   72

ORBITAL ENERGIES
----------------

  NO   OCC          E(Eh)            E(eV)
   0   2.0000     -19.127794      -520.4937
   1   2.0000     -10.213256      -277.9168
   2   2.0000     -10.161370      -276.5049
   3   2.0000      -1.004311       -27.3287
   4   2.0000      -0.737445       -20.0669
   5   2.0000      -0.598705       -16.2916
   6   2.0000      -0.500762       -13.6264
   7   2.0000      -0.455294       -12.3892
   8   2.0000      -0.393641       -10.7115
   9   2.0000      -0.373529       -10.1642
  10   2.0000      -0.355080        -9.6622
  11   2.0000      -0.320611        -8.7243
  12   2.0000      -0.257619        -7.0102
  13   0.0000       0.094643         2.5754
  14   0.0000       0.130435         3.5493
  15   0.0000       0.165584         4.5058
  16   0.0000       0.175663         4.7800
  17   0.0000       0.184870         5.0306

MULLIKEN ATOMIC CHARGES
-----------------------
   0 C :   -0.331878
   1 C :    0.062006
   2 H :    0.114145
   3 H :    0.113384
   4 H :    0.110194
   5 O :   -0.591877
   6 H :    0.091548
   7 H :    0.093450
   8 H :    0.339027
Sum of atomic charges:   -0.0000000

LOEWDIN ATOMIC CHARGES
----------------------
   0 C :   -0.210599
   1 C :    0.003604
   2 H :    0.079432
   3 H :    0.073059
   4 H :    0.072232
   5 O :   -0.308968
   6 H :    0.053207
   7 H :    0.053573
   8 H :    0.184461

  Mayer bond orders larger than 0.1
B(  0-C ,  1-C ) :   1.0226 B(  0-C ,  2-H ) :   0.9599 B(  0-C ,  3-H ) :   0.9631
B(  0-C ,  4-H ) :   0.9631 B(  1-C ,  5-O ) :   0.9424 B(  1-C ,  6-H ) :   0.9498
B(  1-C ,  7-H ) :   0.9500 B(  5-O ,  8-H ) :   0.8663

FINAL SINGLE POINT ENERGY      -154.954800116662

DIPOLE MOMENT
-------------
                                X             Y             Z
Electronic contribution:      2.47603       0.60280      -0.69824
Nuclear contribution   :     -2.64576       0.12585       0.89246
                        -----------------------------------------
Total Dipole Moment    :     -0.16973       0.72865       0.19421
                        -----------------------------------------
Magnitude (a.u.)       :      0.77295
Magnitude (Debye)      :      1.96469

VIBRATIONAL FREQUENCIES
-----------------------

   0:         0.00 cm**-1
   1:         0.00 cm**-1
   2:         0.00 cm**-1
   3:         0.00 cm**-1
   4:         0.00 cm**-1
   5:         0.00 cm**-1
   6:       238.34 cm**-1
   7:       375.75 cm**-1
   8:       413.26 cm**-1
   9:       803.50 cm**-1
  10:       910.20 cm**-1
  11:      1051.45 cm**-1
  12:      1139.65 cm**-1
  13:      1185.37 cm**-1
  14:      1284.38 cm**-1
  15:      1302.23 cm**-1
  16:      1406.14 cm**-1
  17:      1468.47 cm**-1
  18:      1478.56 cm**-1
  19:      1495.84 cm**-1
  20:      1522.60 cm**-1
  21:      3040.83 cm**-1
  22:      3047.60 cm**-1
  23:      3078.56 cm**-1
  24:      3113.34 cm**-1
  25:      3133.10 cm**-1
  26:      3733.31 cm**-1

IR SPECTRUM
-----------

 Mode    freq (cm**-1)   T**2         TX         TY         TZ
-------------------------------------------------------------------
   6:       238.34    6.095585  (  0.894974  -0.390291   2.267659)
   7:       375.75  188.611868  (  4.367898  -2.522637  12.773787)
   8:       413.26   16.172601  ( -3.639129  -0.315438   1.682214)
   9:       803.50    0.072577  (  0.086671   0.086320   0.240029)
  10:       910.20   13.615980  (  3.394508  -0.688960  -1.272253)
  11:      1051.45   67.681038  (  7.612192  -1.351423  -2.812334)
  12:      1139.65   66.075489  ( -7.390146   1.943305   2.772146)
  13:      1185.37    9.618571  ( -0.940285   0.558314  -2.902192)
  14:      1284.38  123.384302  ( -9.581430   4.021334   3.925477)
  15:      1302.23    0.484599  ( -0.489566   0.266900  -0.416759)
  16:      1406.14    2.476849  ( -1.480463  -0.339553   0.412046)
  17:      1468.47   21.003837  ( -1.593170  -4.286779  -0.298611)
  18:      1478.56    7.381798  ( -0.826948   0.665477  -2.501019)
  19:      1495.84    2.744310  ( -1.246529   0.877351   0.648638)
  20:      1522.60    1.140905  (  0.880784   0.566959  -0.209003)
  21:      3040.83   96.991300  ( -2.941135   9.021257   2.637793)
  22:      3047.60   18.359100  ( -2.413802  -3.538224   0.116751)
  23:      3078.56   56.635886  (  2.352956  -1.259671   7.036527)
  24:      3113.34   98.982957  ( -2.959133   1.585695  -9.365472)
  25:      3133.10   40.045575  ( -4.335433   4.132021   2.043525)
  26:      3733.31   50.676258  (  5.259568   4.739777  -0.740083)

--------------------------
THERMOCHEMISTRY AT 298.15K
--------------------------

Temperature         ... 298.15 K
Pressure            ... 1.00 atm
Total Mass          ... 46.07 AMU

Throughout the following assumptions are being made:
  (1) The electronic state is orbitally nondegenerate
  (2) There are no thermally accessible electronically excited states
  (3) Hindered rotations indicated by low frequency modes are not
      treated as such but are treated as vibrations and this may
      cause some error
  (4) All equations used are the standard statistical mechanics
      equations for an ideal gas
  (5) All vibrations are strictly harmonic

freq.     238.34  E(vib)   ...       0.32
freq.     375.75  E(vib)   ...       0.21
freq.     413.26  E(vib)   ...       0.19
freq.     803.50  E(vib)   ...       0.05
freq.     910.20  E(vib)   ...       0.03
freq.    1051.45  E(vib)   ...       0.02
freq.    1139.65  E(vib)   ...       0.01
freq.    1185.37  E(vib)   ...       0.01
freq.    1284.38  E(vib)   ...       0.01
freq.    1302.23  E(vib)   ...       0.01
freq.    1406.14  E(vib)   ...       0.00
freq.    1468.47  E(vib)   ...       0.00
freq.    1478.56  E(vib)   ...       0.00
freq.    1495.84  E(vib)   ...       0.00
freq.    1522.60  E(vib)   ...       0.00
freq.    3040.83  E(vib)   ...       0.00
freq.    3047.60  E(vib)   ...       0.00
freq.    3078.56  E(vib)   ...       0.00
freq.    3113.34  E(vib)   ...       0.00
freq.    3133.10  E(vib)   ...       0.00
freq.    3733.31  E(vib)   ...       0.00

------------
INNER ENERGY
------------

The inner energy is: U= E(el) + E(ZPE) + E(vib) + E(rot) + E(trans)
    E(el)   - is the total energy from the electronic structure calculation
              = E(kin-el) + E(nuc-el) + E(el-el) + E(nuc-nuc)
    E(ZPE)  - the the zero temperature vibrational energy from the frequency calculation
    E(vib)  - the the finite temperature correction to E(ZPE) due to population
              of excited vibrational states
    E(rot)  - is the rotational thermal energy
    E(trans)- is the translational thermal energy

Summary of contributions to the inner energy U:
Electronic energy                ...   -154.95480012 Eh
Zero point energy                ...      0.08024272 Eh      50.35 kcal/mol
Thermal vibrational correction   ...      0.00138288 Eh       0.87 kcal/mol
Thermal rotational correction    ...      0.00141627 Eh       0.89 kcal/mol
Thermal translational correction ...      0.00141627 Eh       0.89 kcal/mol
-----------------------------------------------------------------------
Total thermal energy                   -154.87034198 Eh

Summary of corrections to the electronic energy:
(perhaps to be used in another calculation)
Total thermal correction                  0.00421542 Eh       2.65 kcal/mol
Non-thermal (ZPE) correction              0.08024272 Eh      50.35 kcal/mol
-----------------------------------------------------------------------
Total correction                          0.08445814 Eh      53.00 kcal/mol

--------
ENTHALPY
--------

The enthalpy is H = U + kB*T
                kB is Boltzmann's constant
Total free energy                 ...   -154.87034198 Eh
Thermal Enthalpy correction       ...      0.00094421 Eh       0.59 kcal/mol
-----------------------------------------------------------------------
Total Enthalpy                    ...   -154.86939777 Eh

Vibrational entropy computed according to the QRRHO of S. Grimme
Chem.Eur.J. 2012 18 9955

-------
ENTROPY
-------

The entropy contributions are T*S = T*(S(el)+S(vib)+S(rot)+S(trans)
     S(el)   - electronic entropy
     S(vib)  - vibrational entropy
     S(rot)  - rotational entropy
     S(trans)- translational entropy
The entropies will be listed as mutliplied by the temperature to get
units of energy

Electronic entropy                ...      0.00000000 Eh      0.00 kcal/mol
Vibrational entropy               ...      0.00210526 Eh      1.32 kcal/mol
Rotational entropy                ...      0.00955797 Eh      6.00 kcal/mol
Translational entropy             ...      0.01777359 Eh     11.15 kcal/mol
-----------------------------------------------------------------------
Final entropy term                ...      0.02943682 Eh     18.47 kcal/mol

CAUTION: The rotational entropy is not quite correctly treated here
         because it includes a symmetry number that is not yet correctly
         implemented in ORCA!
For a nonlinear molecule the correct rotational entropy is:
    S(rot) = R*(ln(qrot/sn)+1.5)
    R    = 8.31441 J/mol/K = 1.987191683e-3 kcal/mol/K
    qrot = 16674.6357998
    sn is the rotational symmetry number. We have assumed 3 here
       if it is different for your molecule then you should correct
       the printed rotational entropy by manually evaluating the equation
       as given above

For convenience we print out the resulting values for sn=1 - 12:
 sn= 1  qrot/sn=   16674.6358 T*S(rot)=     6.65 kcal/mol T*S(tot)=    19.12 kcal/mol
 sn= 2  qrot/sn=    8337.3179 T*S(rot)=     6.24 kcal/mol T*S(tot)=    18.71 kcal/mol
 sn= 3  qrot/sn=    5558.2119 T*S(rot)=     6.00 kcal/mol T*S(tot)=    18.47 kcal/mol
 sn= 4  qrot/sn=    4168.6589 T*S(rot)=     5.83 kcal/mol T*S(tot)=    18.30 kcal/mol
 sn= 5  qrot/sn=    3334.9272 T*S(rot)=     5.70 kcal/mol T*S(tot)=    18.17 kcal/mol
 sn= 6  qrot/sn=    2779.1060 T*S(rot)=     5.59 kcal/mol T*S(tot)=    18.06 kcal/mol
 sn= 7  qrot/sn=    2382.0908 T*S(rot)=     5.50 kcal/mol T*S(tot)=    17.97 kcal/mol
 sn= 8  qrot/sn=    2084.3295 T*S(rot)=     5.42 kcal/mol T*S(tot)=    17.89 kcal/mol
 sn= 9  qrot/sn=    1852.7373 T*S(rot)=     5.35 kcal/mol T*S(tot)=    17.82 kcal/mol
 sn=10  qrot/sn=    1667.4636 T*S(rot)=     5.28 kcal/mol T*S(tot)=    17.76 kcal/mol
 sn=11  qrot/sn=    1515.8760 T*S(rot)=     5.23 kcal/mol T*S(tot)=    17.70 kcal/mol
 sn=12  qrot/sn=    1389.5530 T*S(rot)=     5.18 kcal/mol T*S(tot)=    17.65 kcal/mol

-------------------
GIBBS FREE ENTHALPY
-------------------

The Gibbs free enthalpy is G = H - T*S

Total enthalpy                    ...   -154.86939777 Eh
Total entropy correction          ...     -0.02943682 Eh    -18.47 kcal/mol
-----------------------------------------------------------------------
Final Gibbs free enthalpy         ...   -154.89883459 Eh

For completeness - the Gibbs free enthalpy minus the electronic energy
G-E(el)                           ...      0.05596553 Eh     35.12 kcal/mol

                             ****ORCA TERMINATED NORMALLY****
TOTAL RUN TIME: 0 days 0 hours 18 minutes 36 seconds 504 msec
