                         Program Version 4.0.1 -  RELEASE  -
|  1> ! B3LYP 6-31G(d,p) Freq
|  2>
|  3> * xyzfile 0 1 etanamina.xyz
|  4>
|  5>                          ****END OF INPUT****

CARTESIAN COORDINATES (ANGSTROEM)
---------------------------------
  C     -4.713560   -0.418810    0.019530
  C     -3.796290    0.790000   -0.054830
  H     -5.697600   -0.122840    0.396940
  H     -4.309710   -1.182170    0.693060
  H     -4.853330   -0.871820   -0.967740
  N     -2.477980    0.420770   -0.555330
  H     -3.691820    1.239420    0.938010
  H     -4.232390    1.548020   -0.713490
  H     -2.570090   -0.009710   -1.474880
  H     -2.071810   -0.294150    0.047390

 Total Charge           Charge          ....    0
 Multiplicity           Mult            ....    1
 Number of Electrons    NEL             ....   26
 Basis Dimension        Dim             ....   77

ORBITAL ENERGIES
----------------

  NO   OCC          E(Eh)            E(eV)
   0   2.0000     -14.296830      -389.0365
   1   2.0000     -10.194074      -277.3949
   2   2.0000     -10.163201      -276.5547
   3   2.0000      -0.872213       -23.7341
   4   2.0000      -0.719614       -19.5817
   5   2.0000      -0.601872       -16.3778
   6   2.0000      -0.489117       -13.3095
   7   2.0000      -0.431372       -11.7382
   8   2.0000      -0.403012       -10.9665
   9   2.0000      -0.395408       -10.7596
  10   2.0000      -0.356928        -9.7125
  11   2.0000      -0.335071        -9.1178
  12   2.0000      -0.221244        -6.0204
  13   0.0000       0.086172         2.3449
  14   0.0000       0.137419         3.7394
  15   0.0000       0.138024         3.7558
  16   0.0000       0.157169         4.2768
  17   0.0000       0.176884         4.8133

MULLIKEN ATOMIC CHARGES
-----------------------
   0 C :   -0.308980
   1 C :   -0.060922
   2 H :    0.090751
   3 H :    0.095934
   4 H :    0.093590
   5 N :   -0.570387
   6 H :    0.101044
   7 H :    0.103146
   8 H :    0.227593
   9 H :    0.228230
Sum of atomic charges:   -0.0000000

LOEWDIN ATOMIC CHARGES
----------------------
   0 C :   -0.216420
   1 C :   -0.069639
   2 H :    0.065477
   3 H :    0.064113
   4 H :    0.063556
   5 N :   -0.277243
   6 H :    0.065402
   7 H :    0.065828
   8 H :    0.119375
   9 H :    0.119550

  Mayer bond orders larger than 0.1
B(  0-C ,  1-C ) :   1.0052 B(  0-C ,  2-H ) :   0.9560 B(  0-C ,  3-H ) :   0.9668
B(  0-C ,  4-H ) :   0.9666 B(  1-C ,  5-N ) :   1.0238 B(  1-C ,  6-H ) :   0.9586
B(  1-C ,  7-H ) :   0.9589 B(  5-N ,  8-H ) :   0.9178 B(  5-N ,  9-H ) :   0.9180

FINAL SINGLE POINT ENERGY      -135.084805370079

DIPOLE MOMENT
-------------
                                X             Y             Z
Electronic contribution:      1.46179       0.81003      -0.32585
Nuclear contribution   :     -1.75328      -1.26416       0.33766
                        -----------------------------------------
Total Dipole Moment    :     -0.29149      -0.45413       0.01181
                        -----------------------------------------
Magnitude (a.u.)       :      0.53976
Magnitude (Debye)      :      1.37195

VIBRATIONAL FREQUENCIES
-----------------------

   0:         0.00 cm**-1
   1:         0.00 cm**-1
   2:         0.00 cm**-1
   3:         0.00 cm**-1
   4:         0.00 cm**-1
   5:         0.00 cm**-1
   6:       267.29 cm**-1
   7:       312.69 cm**-1
   8:       426.32 cm**-1
   9:       790.69 cm**-1
  10:       889.93 cm**-1
  11:       925.36 cm**-1
  12:      1012.26 cm**-1
  13:      1087.02 cm**-1
  14:      1161.25 cm**-1
  15:      1278.33 cm**-1
  16:      1378.62 cm**-1
  17:      1389.09 cm**-1
  18:      1422.87 cm**-1
  19:      1494.71 cm**-1
  20:      1510.14 cm**-1
  21:      1515.05 cm**-1
  22:      1676.16 cm**-1
  23:      3038.40 cm**-1
  24:      3057.94 cm**-1
  25:      3094.76 cm**-1
  26:      3112.65 cm**-1
  27:      3122.23 cm**-1
  28:      3463.85 cm**-1
  29:      3545.11 cm**-1

IR SPECTRUM
-----------

 Mode    freq (cm**-1)   T**2         TX         TY         TZ
-------------------------------------------------------------------
   6:       267.29    5.462416  (  0.711684  -0.399399   2.190069)
   7:       312.69   48.771498  (  2.116876  -1.222174   6.541913)
   8:       426.32    6.111765  (  2.254896  -0.555154  -0.847947)
   9:       790.69    0.776275  ( -0.302859   0.119367  -0.818721)
  10:       889.93  182.338582  ( 12.348899   4.403388  -3.233180)
  11:       925.36    6.372583  ( -2.139675  -1.247995   0.486703)
  12:      1012.26    1.165946  ( -0.334846   0.187397  -1.009310)
  13:      1087.02   25.322390  ( -4.528353  -1.882045   1.128853)
  14:      1161.25    9.572600  ( -0.413695  -3.034365  -0.440552)
  15:      1278.33    0.019662  (  0.022896  -0.040193   0.132373)
  16:      1378.62   17.753646  ( -3.980220  -0.737619   1.169365)
  17:      1389.09    0.019587  ( -0.114295  -0.008615   0.080306)
  18:      1422.87    4.823633  ( -1.487499  -1.600990   0.218659)
  19:      1494.71    0.039976  (  0.175448  -0.052714  -0.080095)
  20:      1510.14    5.804510  (  0.760589  -0.439363   2.243429)
  21:      1515.05    0.788723  ( -0.475764   0.712768   0.233095)
  22:      1676.16   19.568198  ( -1.453021   3.996690   1.217949)
  23:      3038.40   25.991385  (  3.355699   3.820186  -0.369926)
  24:      3057.94   34.597712  ( -1.112280   5.590663   1.450873)
  25:      3094.76    1.736143  (  0.435193  -0.255329   1.217193)
  26:      3112.65   57.200731  ( -5.716227   4.116078   2.753794)
  27:      3122.23   68.232843  (  2.590553  -1.516484   7.695593)
  28:      3463.85    1.722818  (  0.622466  -1.071987  -0.431505)
  29:      3545.11    0.607776  (  0.232613  -0.131057   0.732455)

--------------------------
THERMOCHEMISTRY AT 298.15K
--------------------------

Temperature         ... 298.15 K
Pressure            ... 1.00 atm
Total Mass          ... 45.09 AMU

Throughout the following assumptions are being made:
  (1) The electronic state is orbitally nondegenerate
  (2) There are no thermally accessible electronically excited states
  (3) Hindered rotations indicated by low frequency modes are not
      treated as such but are treated as vibrations and this may
      cause some error
  (4) All equations used are the standard statistical mechanics
      equations for an ideal gas
  (5) All vibrations are strictly harmonic

freq.     267.29  E(vib)   ...       0.29
freq.     312.69  E(vib)   ...       0.25
freq.     426.32  E(vib)   ...       0.18
freq.     790.69  E(vib)   ...       0.05
freq.     889.93  E(vib)   ...       0.04
freq.     925.36  E(vib)   ...       0.03
freq.    1012.26  E(vib)   ...       0.02
freq.    1087.02  E(vib)   ...       0.02
freq.    1161.25  E(vib)   ...       0.01
freq.    1278.33  E(vib)   ...       0.01
freq.    1378.62  E(vib)   ...       0.01
freq.    1389.09  E(vib)   ...       0.00
freq.    1422.87  E(vib)   ...       0.00
freq.    1494.71  E(vib)   ...       0.00
freq.    1510.14  E(vib)   ...       0.00
freq.    1515.05  E(vib)   ...       0.00
freq.    1676.16  E(vib)   ...       0.00
freq.    3038.40  E(vib)   ...       0.00
freq.    3057.94  E(vib)   ...       0.00
freq.    3094.76  E(vib)   ...       0.00
freq.    3112.65  E(vib)   ...       0.00
freq.    3122.23  E(vib)   ...       0.00
freq.    3463.85  E(vib)   ...       0.00
freq.    3545.11  E(vib)   ...       0.00

------------
INNER ENERGY
------------

The inner energy is: U= E(el) + E(ZPE) + E(vib) + E(rot) + E(trans)
    E(el)   - is the total energy from the electronic structure calculation
              = E(kin-el) + E(nuc-el) + E(el-el) + E(nuc-nuc)
    E(ZPE)  - the the zero temperature vibrational energy from the frequency calculation
    E(vib)  - the the finite temperature correction to E(ZPE) due to population
              of excited vibrational states
    E(rot)  - is the rotational thermal energy
    E(trans)- is the translational thermal energy

Summary of contributions to the inner energy U:
Electronic energy                ...   -135.08480537 Eh
Zero point energy                ...      0.09334270 Eh      58.57 kcal/mol
Thermal vibrational correction   ...      0.00147072 Eh       0.92 kcal/mol
Thermal rotational correction    ...      0.00141627 Eh       0.89 kcal/mol
Thermal translational correction ...      0.00141627 Eh       0.89 kcal/mol
-----------------------------------------------------------------------
Total thermal energy                   -134.98715941 Eh

Summary of corrections to the electronic energy:
(perhaps to be used in another calculation)
Total thermal correction                  0.00430326 Eh       2.70 kcal/mol
Non-thermal (ZPE) correction              0.09334270 Eh      58.57 kcal/mol
-----------------------------------------------------------------------
Total correction                          0.09764596 Eh      61.27 kcal/mol

--------
ENTHALPY
--------

The enthalpy is H = U + kB*T
                kB is Boltzmann's constant
Total free energy                 ...   -134.98715941 Eh
Thermal Enthalpy correction       ...      0.00094421 Eh       0.59 kcal/mol
-----------------------------------------------------------------------
Total Enthalpy                    ...   -134.98621520 Eh

Vibrational entropy computed according to the QRRHO of S. Grimme
Chem.Eur.J. 2012 18 9955

-------
ENTROPY
-------

The entropy contributions are T*S = T*(S(el)+S(vib)+S(rot)+S(trans)
     S(el)   - electronic entropy
     S(vib)  - vibrational entropy
     S(rot)  - rotational entropy
     S(trans)- translational entropy
The entropies will be listed as mutliplied by the temperature to get
units of energy

Electronic entropy                ...      0.00000000 Eh      0.00 kcal/mol
Vibrational entropy               ...      0.00221324 Eh      1.39 kcal/mol
Rotational entropy                ...      0.00963771 Eh      6.05 kcal/mol
Translational entropy             ...      0.01774301 Eh     11.13 kcal/mol
-----------------------------------------------------------------------
Final entropy term                ...      0.02959396 Eh     18.57 kcal/mol

CAUTION: The rotational entropy is not quite correctly treated here
         because it includes a symmetry number that is not yet correctly
         implemented in ORCA!
For a nonlinear molecule the correct rotational entropy is:
    S(rot) = R*(ln(qrot/sn)+1.5)
    R    = 8.31441 J/mol/K = 1.987191683e-3 kcal/mol/K
    qrot = 18143.9357950
    sn is the rotational symmetry number. We have assumed 3 here
       if it is different for your molecule then you should correct
       the printed rotational entropy by manually evaluating the equation
       as given above

For convenience we print out the resulting values for sn=1 - 12:
 sn= 1  qrot/sn=   18143.9358 T*S(rot)=     6.70 kcal/mol T*S(tot)=    19.22 kcal/mol
 sn= 2  qrot/sn=    9071.9679 T*S(rot)=     6.29 kcal/mol T*S(tot)=    18.81 kcal/mol
 sn= 3  qrot/sn=    6047.9786 T*S(rot)=     6.05 kcal/mol T*S(tot)=    18.57 kcal/mol
 sn= 4  qrot/sn=    4535.9839 T*S(rot)=     5.88 kcal/mol T*S(tot)=    18.40 kcal/mol
 sn= 5  qrot/sn=    3628.7872 T*S(rot)=     5.75 kcal/mol T*S(tot)=    18.27 kcal/mol
 sn= 6  qrot/sn=    3023.9893 T*S(rot)=     5.64 kcal/mol T*S(tot)=    18.16 kcal/mol
 sn= 7  qrot/sn=    2591.9908 T*S(rot)=     5.55 kcal/mol T*S(tot)=    18.07 kcal/mol
 sn= 8  qrot/sn=    2267.9920 T*S(rot)=     5.47 kcal/mol T*S(tot)=    17.99 kcal/mol
 sn= 9  qrot/sn=    2015.9929 T*S(rot)=     5.40 kcal/mol T*S(tot)=    17.92 kcal/mol
 sn=10  qrot/sn=    1814.3936 T*S(rot)=     5.33 kcal/mol T*S(tot)=    17.86 kcal/mol
 sn=11  qrot/sn=    1649.4487 T*S(rot)=     5.28 kcal/mol T*S(tot)=    17.80 kcal/mol
 sn=12  qrot/sn=    1511.9946 T*S(rot)=     5.23 kcal/mol T*S(tot)=    17.75 kcal/mol

-------------------
GIBBS FREE ENTHALPY
-------------------

The Gibbs free enthalpy is G = H - T*S

Total enthalpy                    ...   -134.98621520 Eh
Total entropy correction          ...     -0.02959396 Eh    -18.57 kcal/mol
-----------------------------------------------------------------------
Final Gibbs free enthalpy         ...   -135.01580916 Eh

For completeness - the Gibbs free enthalpy minus the electronic energy
G-E(el)                           ...      0.06899621 Eh     43.30 kcal/mol

                             ****ORCA TERMINATED NORMALLY****
TOTAL RUN TIME: 0 days 0 hours 3 minutes 36 seconds 572 msec
