                         Program Version 4.0.1 -  RELEASE  -
|  1> ! B3LYP 6-31G(d,p) Freq
|  2>
|  3> * xyzfile 0 1 acetamida.xyz
|  4>
|  5>                          ****END OF INPUT****

CARTESIAN COORDINATES (ANGSTROEM)
---------------------------------
  C     -4.699030   -0.460890   -0.036580
  C     -3.683770    0.639570   -0.142460
  H     -5.707140   -0.038520   -0.069540
  H     -4.561410   -1.001890    0.903710
  H     -4.576560   -1.157510   -0.870300
  O     -2.855180    0.718160   -1.040080
  N     -3.747650    1.568440    0.852170
  H     -3.084210    2.331760    0.826730
  H     -4.420210    1.528460    1.604330

 Total Charge           Charge          ....    0
 Multiplicity           Mult            ....    1
 Number of Electrons    NEL             ....   32
 Basis Dimension        Dim             ....   81

ORBITAL ENERGIES
----------------

  NO   OCC          E(Eh)            E(eV)
   0   2.0000     -19.095513      -519.6153
   1   2.0000     -14.345368      -390.3573
   2   2.0000     -10.276464      -279.6368
   3   2.0000     -10.181324      -277.0479
   4   2.0000      -1.018431       -27.7129
   5   2.0000      -0.894681       -24.3455
   6   2.0000      -0.736264       -20.0348
   7   2.0000      -0.581614       -15.8265
   8   2.0000      -0.531420       -14.4607
   9   2.0000      -0.459276       -12.4975
  10   2.0000      -0.443997       -12.0818
  11   2.0000      -0.396571       -10.7913
  12   2.0000      -0.385965       -10.5027
  13   2.0000      -0.358861        -9.7651
  14   2.0000      -0.258320        -7.0293
  15   2.0000      -0.238002        -6.4764
  16   0.0000       0.038566         1.0494
  17   0.0000       0.074807         2.0356
  18   0.0000       0.122776         3.3409
  19   0.0000       0.143173         3.8959
  20   0.0000       0.166375         4.5273

MULLIKEN ATOMIC CHARGES
-----------------------
   0 C :   -0.395716
   1 C :    0.492841
   2 H :    0.123804
   3 H :    0.125406
   4 H :    0.145320
   5 O :   -0.456728
   6 N :   -0.572075
   7 H :    0.275577
   8 H :    0.261572
Sum of atomic charges:   -0.0000000

LOEWDIN ATOMIC CHARGES
----------------------
   0 C :   -0.224235
   1 C :    0.108966
   2 H :    0.085176
   3 H :    0.085676
   4 H :    0.094112
   5 O :   -0.272651
   6 N :   -0.168461
   7 H :    0.149652
   8 H :    0.141765

  Mayer bond orders larger than 0.1
B(  0-C ,  1-C ) :   0.9683 B(  0-C ,  2-H ) :   0.9505 B(  0-C ,  3-H ) :   0.9503
B(  0-C ,  4-H ) :   0.9622 B(  1-C ,  5-O ) :   1.9249 B(  1-C ,  6-N ) :   1.1290
B(  6-N ,  7-H ) :   0.8883 B(  6-N ,  8-H ) :   0.8947

FINAL SINGLE POINT ENERGY      -209.100169916361

DIPOLE MOMENT
-------------
                                X             Y             Z
Electronic contribution:      2.51148       1.58789      -1.38288
Nuclear contribution   :     -3.37312      -1.39467       2.59033
                        -----------------------------------------
Total Dipole Moment    :     -0.86164       0.19322       1.20744
                        -----------------------------------------
Magnitude (a.u.)       :      1.49589
Magnitude (Debye)      :      3.80224

VIBRATIONAL FREQUENCIES
-----------------------

   0:         0.00 cm**-1
   1:         0.00 cm**-1
   2:         0.00 cm**-1
   3:         0.00 cm**-1
   4:         0.00 cm**-1
   5:         0.00 cm**-1
   6:       -52.81 cm**-1 ***imaginary mode***
   7:       192.87 cm**-1
   8:       418.90 cm**-1
   9:       541.71 cm**-1
  10:       556.02 cm**-1
  11:       663.59 cm**-1
  12:       879.58 cm**-1
  13:       988.32 cm**-1
  14:      1065.64 cm**-1
  15:      1130.67 cm**-1
  16:      1359.24 cm**-1
  17:      1430.81 cm**-1
  18:      1477.81 cm**-1
  19:      1501.28 cm**-1
  20:      1635.22 cm**-1
  21:      1812.02 cm**-1
  22:      3057.11 cm**-1
  23:      3136.88 cm**-1
  24:      3149.83 cm**-1
  25:      3570.75 cm**-1
  26:      3708.79 cm**-1

IR SPECTRUM
-----------

 Mode    freq (cm**-1)   T**2         TX         TY         TZ
-------------------------------------------------------------------
   7:       192.87  221.037681  (  9.551573  -8.011266   8.100910)
   8:       418.90    3.568692  (  1.453576   0.949504  -0.744482)
   9:       541.71    4.805009  (  1.422722  -1.136773   1.220090)
  10:       556.02   15.068729  (  1.302908   3.257834   1.660626)
  11:       663.59   12.867289  (  2.292893  -1.926343   1.974623)
  12:       879.58    0.530994  ( -0.415070  -0.594504  -0.072639)
  13:       988.32    6.243536  ( -0.671124   1.270615   2.044179)
  14:      1065.64    4.344673  (  1.354721  -1.110388   1.129798)
  15:      1130.67    1.114030  (  0.163032   0.819592   0.644763)
  16:      1359.24   51.549177  (  0.165149  -5.005895  -5.144212)
  17:      1430.81  108.676564  (  3.531746   8.735623   4.460070)
  18:      1477.81    8.651132  ( -1.862600   0.087550   2.274684)
  19:      1501.28    8.734553  (  1.886456  -1.571940   1.644640)
  20:      1635.22  118.763177  (  2.163285   8.749381   6.126313)
  21:      1812.02  297.827752  ( -9.737190   2.580629  14.012681)
  22:      3057.11    5.954254  (  1.885763   1.066461  -1.122859)
  23:      3136.88   12.622675  (  2.273921  -1.933541   1.927012)
  24:      3149.83    7.740948  (  0.978647  -1.133587  -2.344820)
  25:      3570.75   28.441799  (  0.400361   4.008245   3.495066)
  26:      3708.79   31.557525  ( -4.298066  -2.778275   2.316321)

--------------------------
THERMOCHEMISTRY AT 298.15K
--------------------------

Temperature         ... 298.15 K
Pressure            ... 1.00 atm
Total Mass          ... 59.07 AMU

Throughout the following assumptions are being made:
  (1) The electronic state is orbitally nondegenerate
  (2) There are no thermally accessible electronically excited states
  (3) Hindered rotations indicated by low frequency modes are not
      treated as such but are treated as vibrations and this may
      cause some error
  (4) All equations used are the standard statistical mechanics
      equations for an ideal gas
  (5) All vibrations are strictly harmonic

freq.     192.87  E(vib)   ...       0.36
freq.     418.90  E(vib)   ...       0.18
freq.     541.71  E(vib)   ...       0.12
freq.     556.02  E(vib)   ...       0.12
freq.     663.59  E(vib)   ...       0.08
freq.     879.58  E(vib)   ...       0.04
freq.     988.32  E(vib)   ...       0.02
freq.    1065.64  E(vib)   ...       0.02
freq.    1130.67  E(vib)   ...       0.01
freq.    1359.24  E(vib)   ...       0.01
freq.    1430.81  E(vib)   ...       0.00
freq.    1477.81  E(vib)   ...       0.00
freq.    1501.28  E(vib)   ...       0.00
freq.    1635.22  E(vib)   ...       0.00
freq.    1812.02  E(vib)   ...       0.00
freq.    3057.11  E(vib)   ...       0.00
freq.    3136.88  E(vib)   ...       0.00
freq.    3149.83  E(vib)   ...       0.00
freq.    3570.75  E(vib)   ...       0.00
freq.    3708.79  E(vib)   ...       0.00

------------
INNER ENERGY
------------

The inner energy is: U= E(el) + E(ZPE) + E(vib) + E(rot) + E(trans)
    E(el)   - is the total energy from the electronic structure calculation
              = E(kin-el) + E(nuc-el) + E(el-el) + E(nuc-nuc)
    E(ZPE)  - the the zero temperature vibrational energy from the frequency calculation
    E(vib)  - the the finite temperature correction to E(ZPE) due to population
              of excited vibrational states
    E(rot)  - is the rotational thermal energy
    E(trans)- is the translational thermal energy

Summary of contributions to the inner energy U:
Electronic energy                ...   -209.10016992 Eh
Zero point energy                ...      0.07353251 Eh      46.14 kcal/mol
Thermal vibrational correction   ...      0.00154979 Eh       0.97 kcal/mol
Thermal rotational correction    ...      0.00141627 Eh       0.89 kcal/mol
Thermal translational correction ...      0.00141627 Eh       0.89 kcal/mol
-----------------------------------------------------------------------
Total thermal energy                   -209.02225507 Eh

Summary of corrections to the electronic energy:
(perhaps to be used in another calculation)
Total thermal correction                  0.00438234 Eh       2.75 kcal/mol
Non-thermal (ZPE) correction              0.07353251 Eh      46.14 kcal/mol
-----------------------------------------------------------------------
Total correction                          0.07791484 Eh      48.89 kcal/mol

--------
ENTHALPY
--------

The enthalpy is H = U + kB*T
                kB is Boltzmann's constant
Total free energy                 ...   -209.02225507 Eh
Thermal Enthalpy correction       ...      0.00094421 Eh       0.59 kcal/mol
-----------------------------------------------------------------------
Total Enthalpy                    ...   -209.02131086 Eh

Vibrational entropy computed according to the QRRHO of S. Grimme
Chem.Eur.J. 2012 18 9955

-------
ENTROPY
-------

The entropy contributions are T*S = T*(S(el)+S(vib)+S(rot)+S(trans)
     S(el)   - electronic entropy
     S(vib)  - vibrational entropy
     S(rot)  - rotational entropy
     S(trans)- translational entropy
The entropies will be listed as mutliplied by the temperature to get
units of energy

Electronic entropy                ...      0.00000000 Eh      0.00 kcal/mol
Vibrational entropy               ...      0.00237243 Eh      1.49 kcal/mol
Rotational entropy                ...      0.01033037 Eh      6.48 kcal/mol
Translational entropy             ...      0.01812560 Eh     11.37 kcal/mol
-----------------------------------------------------------------------
Final entropy term                ...      0.03082839 Eh     19.35 kcal/mol

CAUTION: The rotational entropy is not quite correctly treated here
         because it includes a symmetry number that is not yet correctly
         implemented in ORCA!
For a nonlinear molecule the correct rotational entropy is:
    S(rot) = R*(ln(qrot/sn)+1.5)
    R    = 8.31441 J/mol/K = 1.987191683e-3 kcal/mol/K
    qrot = 37786.1720929
    sn is the rotational symmetry number. We have assumed 3 here
       if it is different for your molecule then you should correct
       the printed rotational entropy by manually evaluating the equation
       as given above

For convenience we print out the resulting values for sn=1 - 12:
 sn= 1  qrot/sn=   37786.1721 T*S(rot)=     7.13 kcal/mol T*S(tot)=    20.00 kcal/mol
 sn= 2  qrot/sn=   18893.0860 T*S(rot)=     6.72 kcal/mol T*S(tot)=    19.59 kcal/mol
 sn= 3  qrot/sn=   12595.3907 T*S(rot)=     6.48 kcal/mol T*S(tot)=    19.35 kcal/mol
 sn= 4  qrot/sn=    9446.5430 T*S(rot)=     6.31 kcal/mol T*S(tot)=    19.17 kcal/mol
 sn= 5  qrot/sn=    7557.2344 T*S(rot)=     6.18 kcal/mol T*S(tot)=    19.04 kcal/mol
 sn= 6  qrot/sn=    6297.6953 T*S(rot)=     6.07 kcal/mol T*S(tot)=    18.93 kcal/mol
 sn= 7  qrot/sn=    5398.0246 T*S(rot)=     5.98 kcal/mol T*S(tot)=    18.84 kcal/mol
 sn= 8  qrot/sn=    4723.2715 T*S(rot)=     5.90 kcal/mol T*S(tot)=    18.76 kcal/mol
 sn= 9  qrot/sn=    4198.4636 T*S(rot)=     5.83 kcal/mol T*S(tot)=    18.69 kcal/mol
 sn=10  qrot/sn=    3778.6172 T*S(rot)=     5.77 kcal/mol T*S(tot)=    18.63 kcal/mol
 sn=11  qrot/sn=    3435.1066 T*S(rot)=     5.71 kcal/mol T*S(tot)=    18.58 kcal/mol
 sn=12  qrot/sn=    3148.8477 T*S(rot)=     5.66 kcal/mol T*S(tot)=    18.52 kcal/mol

-------------------
GIBBS FREE ENTHALPY
-------------------

The Gibbs free enthalpy is G = H - T*S

Total enthalpy                    ...   -209.02131086 Eh
Total entropy correction          ...     -0.03082839 Eh    -19.35 kcal/mol
-----------------------------------------------------------------------
Final Gibbs free enthalpy         ...   -209.05213926 Eh

For completeness - the Gibbs free enthalpy minus the electronic energy
G-E(el)                           ...      0.04803066 Eh     30.14 kcal/mol

                             ****ORCA TERMINATED NORMALLY****
TOTAL RUN TIME: 0 days 0 hours 4 minutes 40 seconds 511 msec
