                         Program Version 4.0.1 -  RELEASE  -
|  1> ! B3LYP 6-31G(d,p) CPCM(water) NumFreq
|  2>
|  3> * xyzfile 0 1 etanal.xyz
|  4>
|  5>                          ****END OF INPUT****

CARTESIAN COORDINATES (ANGSTROEM)
---------------------------------
  C     -4.700350   -0.428460   -0.002920
  C     -3.698450    0.681690   -0.083480
  H     -5.706770   -0.004960   -0.037420
  H     -4.560580   -0.968730    0.936230
  H     -4.566250   -1.116170   -0.841510
  O     -2.862340    0.774300   -0.976080
  H     -3.752720    1.432100    0.723170

 Total Charge           Charge          ....    0
 Multiplicity           Mult            ....    1
 Number of Electrons    NEL             ....   24
 Basis Dimension        Dim             ....   62

ORBITAL ENERGIES
----------------

  NO   OCC          E(Eh)            E(eV)
   0   2.0000     -19.144358      -520.9445
   1   2.0000     -10.272984      -279.5421
   2   2.0000     -10.175517      -276.8899
   3   2.0000      -1.037044       -28.2194
   4   2.0000      -0.741982       -20.1903
   5   2.0000      -0.573550       -15.6071
   6   2.0000      -0.468403       -12.7459
   7   2.0000      -0.434132       -11.8133
   8   2.0000      -0.428166       -11.6510
   9   2.0000      -0.382310       -10.4032
  10   2.0000      -0.356749        -9.7076
  11   2.0000      -0.254058        -6.9133
  12   0.0000      -0.020453        -0.5566
  13   0.0000       0.128715         3.5025
  14   0.0000       0.149625         4.0715
  15   0.0000       0.168733         4.5915
  16   0.0000       0.177867         4.8400

MULLIKEN ATOMIC CHARGES
-----------------------
   0 C :   -0.384966
   1 C :    0.279486
   2 H :    0.153105
   3 H :    0.154188
   4 H :    0.134692
   5 O :   -0.440275
   6 H :    0.103770
Sum of atomic charges:   -0.0000000

LOEWDIN ATOMIC CHARGES
----------------------
   0 C :   -0.231306
   1 C :    0.135389
   2 H :    0.104141
   3 H :    0.104549
   4 H :    0.087234
   5 O :   -0.254738
   6 H :    0.054731

  Mayer bond orders larger than 0.1
B(  0-C ,  1-C ) :   0.9932 B(  0-C ,  2-H ) :   0.9365 B(  0-C ,  3-H ) :   0.9364
B(  0-C ,  4-H ) :   0.9559 B(  1-C ,  5-O ) :   1.9505 B(  1-C ,  6-H ) :   0.9058

FINAL SINGLE POINT ENERGY      -153.751435247550

DIPOLE MOMENT
-------------
                                X             Y             Z
Electronic contribution:      2.34144       1.60003      -1.17136
Nuclear contribution   :     -3.33361      -1.86851       2.07479
                        -----------------------------------------
Total Dipole Moment    :     -0.99218      -0.26848       0.90342
                        -----------------------------------------
Magnitude (a.u.)       :      1.36846
Magnitude (Debye)      :      3.47834

VIBRATIONAL FREQUENCIES
-----------------------

   0:         0.00 cm**-1
   1:         0.00 cm**-1
   2:         0.00 cm**-1
   3:         0.00 cm**-1
   4:         0.00 cm**-1
   5:         0.00 cm**-1
   6:        55.65 cm**-1
   7:       507.64 cm**-1
   8:       760.32 cm**-1
   9:       897.60 cm**-1
  10:      1131.26 cm**-1
  11:      1135.74 cm**-1
  12:      1363.93 cm**-1
  13:      1411.14 cm**-1
  14:      1435.76 cm**-1
  15:      1462.98 cm**-1
  16:      1760.54 cm**-1
  17:      3000.37 cm**-1
  18:      3063.87 cm**-1
  19:      3152.88 cm**-1
  20:      3153.85 cm**-1

IR SPECTRUM
-----------

 Mode    freq (cm**-1)   T**2         TX         TY         TZ
-------------------------------------------------------------------
   6:        55.65    0.528189  ( -0.278896   0.473653  -0.475457)
   7:       507.64   24.054418  ( -2.742065  -4.014334  -0.648554)
   8:       760.32    2.725339  (  1.121278  -0.884209   0.828401)
   9:       897.60    9.081008  (  2.242137   1.820617  -0.859758)
  10:      1131.26   38.991020  ( -3.246614  -5.075711  -1.639411)
  11:      1135.74    2.478552  ( -0.474751   1.352082  -0.651948)
  12:      1363.93   42.980155  ( -4.861051  -3.909996   2.015508)
  13:      1411.14   16.945986  (  1.762105   3.450681   1.390602)
  14:      1435.76   37.576320  ( -2.861947   1.843788   5.097649)
  15:      1462.98   13.251464  (  2.298600  -1.964911   2.026580)
  16:      1760.54  276.802050  (-12.337270  -4.128183  10.370724)
  17:      3000.37  130.830176  ( -0.722691  -8.495605  -7.624473)
  18:      3063.87    0.595161  ( -0.123865  -0.656108  -0.386446)
  19:      3152.88   11.343079  ( -0.897113   2.686462   1.822413)
  20:      3153.85    8.089551  ( -0.695457  -1.075640  -2.539466)

--------------------------
THERMOCHEMISTRY AT 298.15K
--------------------------

Temperature         ... 298.15 K
Pressure            ... 1.00 atm
Total Mass          ... 44.05 AMU

Throughout the following assumptions are being made:
  (1) The electronic state is orbitally nondegenerate
  (2) There are no thermally accessible electronically excited states
  (3) Hindered rotations indicated by low frequency modes are not
      treated as such but are treated as vibrations and this may
      cause some error
  (4) All equations used are the standard statistical mechanics
      equations for an ideal gas
  (5) All vibrations are strictly harmonic

freq.      55.65  E(vib)   ...       0.52
freq.     507.64  E(vib)   ...       0.14
freq.     760.32  E(vib)   ...       0.06
freq.     897.60  E(vib)   ...       0.03
freq.    1131.26  E(vib)   ...       0.01
freq.    1135.74  E(vib)   ...       0.01
freq.    1363.93  E(vib)   ...       0.01
freq.    1411.14  E(vib)   ...       0.00
freq.    1435.76  E(vib)   ...       0.00
freq.    1462.98  E(vib)   ...       0.00
freq.    1760.54  E(vib)   ...       0.00
freq.    3000.37  E(vib)   ...       0.00
freq.    3063.87  E(vib)   ...       0.00
freq.    3152.88  E(vib)   ...       0.00
freq.    3153.85  E(vib)   ...       0.00

------------
INNER ENERGY
------------

The inner energy is: U= E(el) + E(ZPE) + E(vib) + E(rot) + E(trans)
    E(el)   - is the total energy from the electronic structure calculation
              = E(kin-el) + E(nuc-el) + E(el-el) + E(nuc-nuc)
    E(ZPE)  - the the zero temperature vibrational energy from the frequency calculation
    E(vib)  - the the finite temperature correction to E(ZPE) due to population
              of excited vibrational states
    E(rot)  - is the rotational thermal energy
    E(trans)- is the translational thermal energy

Summary of contributions to the inner energy U:
Electronic energy                ...   -153.75143525 Eh
Zero point energy                ...      0.05534474 Eh      34.73 kcal/mol
Thermal vibrational correction   ...      0.00126000 Eh       0.79 kcal/mol
Thermal rotational correction    ...      0.00141627 Eh       0.89 kcal/mol
Thermal translational correction ...      0.00141627 Eh       0.89 kcal/mol
-----------------------------------------------------------------------
Total thermal energy                   -153.69199797 Eh

Summary of corrections to the electronic energy:
(perhaps to be used in another calculation)
Total thermal correction                  0.00409254 Eh       2.57 kcal/mol
Non-thermal (ZPE) correction              0.05534474 Eh      34.73 kcal/mol
-----------------------------------------------------------------------
Total correction                          0.05943728 Eh      37.30 kcal/mol

--------
ENTHALPY
--------

The enthalpy is H = U + kB*T
                kB is Boltzmann's constant
Total free energy                 ...   -153.69199797 Eh
Thermal Enthalpy correction       ...      0.00094421 Eh       0.59 kcal/mol
-----------------------------------------------------------------------
Total Enthalpy                    ...   -153.69105376 Eh

Vibrational entropy computed according to the QRRHO of S. Grimme
Chem.Eur.J. 2012 18 9955

-------
ENTROPY
-------

The entropy contributions are T*S = T*(S(el)+S(vib)+S(rot)+S(trans)
     S(el)   - electronic entropy
     S(vib)  - vibrational entropy
     S(rot)  - rotational entropy
     S(trans)- translational entropy
The entropies will be listed as mutliplied by the temperature to get
units of energy

Electronic entropy                ...      0.00000000 Eh      0.00 kcal/mol
Vibrational entropy               ...      0.00225371 Eh      1.41 kcal/mol
Rotational entropy                ...      0.00925450 Eh      5.81 kcal/mol
Translational entropy             ...      0.01771022 Eh     11.11 kcal/mol
-----------------------------------------------------------------------
Final entropy term                ...      0.02921842 Eh     18.33 kcal/mol

CAUTION: The rotational entropy is not quite correctly treated here
         because it includes a symmetry number that is not yet correctly
         implemented in ORCA!
For a nonlinear molecule the correct rotational entropy is:
    S(rot) = R*(ln(qrot/sn)+1.5)
    R    = 8.31441 J/mol/K = 1.987191683e-3 kcal/mol/K
    qrot = 12091.1076042
    sn is the rotational symmetry number. We have assumed 3 here
       if it is different for your molecule then you should correct
       the printed rotational entropy by manually evaluating the equation
       as given above

For convenience we print out the resulting values for sn=1 - 12:
 sn= 1  qrot/sn=   12091.1076 T*S(rot)=     6.46 kcal/mol T*S(tot)=    18.99 kcal/mol
 sn= 2  qrot/sn=    6045.5538 T*S(rot)=     6.05 kcal/mol T*S(tot)=    18.58 kcal/mol
 sn= 3  qrot/sn=    4030.3692 T*S(rot)=     5.81 kcal/mol T*S(tot)=    18.33 kcal/mol
 sn= 4  qrot/sn=    3022.7769 T*S(rot)=     5.64 kcal/mol T*S(tot)=    18.16 kcal/mol
 sn= 5  qrot/sn=    2418.2215 T*S(rot)=     5.50 kcal/mol T*S(tot)=    18.03 kcal/mol
 sn= 6  qrot/sn=    2015.1846 T*S(rot)=     5.40 kcal/mol T*S(tot)=    17.92 kcal/mol
 sn= 7  qrot/sn=    1727.3011 T*S(rot)=     5.31 kcal/mol T*S(tot)=    17.83 kcal/mol
 sn= 8  qrot/sn=    1511.3885 T*S(rot)=     5.23 kcal/mol T*S(tot)=    17.75 kcal/mol
 sn= 9  qrot/sn=    1343.4564 T*S(rot)=     5.16 kcal/mol T*S(tot)=    17.68 kcal/mol
 sn=10  qrot/sn=    1209.1108 T*S(rot)=     5.09 kcal/mol T*S(tot)=    17.62 kcal/mol
 sn=11  qrot/sn=    1099.1916 T*S(rot)=     5.04 kcal/mol T*S(tot)=    17.56 kcal/mol
 sn=12  qrot/sn=    1007.5923 T*S(rot)=     4.99 kcal/mol T*S(tot)=    17.51 kcal/mol

-------------------
GIBBS FREE ENTHALPY
-------------------

The Gibbs free enthalpy is G = H - T*S

Total enthalpy                    ...   -153.69105376 Eh
Total entropy correction          ...     -0.02921842 Eh    -18.33 kcal/mol
-----------------------------------------------------------------------
Final Gibbs free enthalpy         ...   -153.72027218 Eh

For completeness - the Gibbs free enthalpy minus the electronic energy
G-E(el)                           ...      0.03116306 Eh     19.56 kcal/mol

                             ****ORCA TERMINATED NORMALLY****
TOTAL RUN TIME: 0 days 0 hours 10 minutes 50 seconds 810 msec
