                         Program Version 4.0.1 -  RELEASE  -
|  1> ! B3LYP 6-31G(d,p) CPCM(toluene) NumFreq
|  2>
|  3> * xyzfile 0 1 tolueno.xyz
|  4>
|  5>                          ****END OF INPUT****

CARTESIAN COORDINATES (ANGSTROEM)
---------------------------------
  C     -4.479960    1.449560    0.000000
  C     -4.396580    0.056250   -0.000000
  C     -3.150720   -0.568040   -0.000000
  C     -1.988020    0.200430   -0.000000
  C     -2.069960    1.594170    0.000000
  C     -3.317010    2.230410    0.000000
  H     -1.153090    2.178870    0.000000
  C     -3.420600    3.726630    0.000000
  H     -5.458270    1.924780    0.000000
  H     -5.304040   -0.541610   -0.000000
  H     -3.085800   -1.652720   -0.000000
  H     -1.015960   -0.285530   -0.000000
  H     -2.432310    4.198030   -0.000000
  H     -3.955060    4.067550    0.892510
  H     -3.955060    4.067550   -0.892510

 Total Charge           Charge          ....    0
 Multiplicity           Mult            ....    1
 Number of Electrons    NEL             ....   50
 Basis Dimension        Dim             ....  138

ORBITAL ENERGIES
----------------

  NO   OCC          E(Eh)            E(eV)
   0   2.0000     -10.183521      -277.1077
   1   2.0000     -10.176077      -276.9051
   2   2.0000     -10.175694      -276.8947
   3   2.0000     -10.173648      -276.8390
   4   2.0000     -10.173493      -276.8348
   5   2.0000     -10.173223      -276.8275
   6   2.0000     -10.168706      -276.7046
   7   2.0000      -0.845578       -23.0093
   8   2.0000      -0.762252       -20.7419
   9   2.0000      -0.733966       -19.9722
  10   2.0000      -0.674222       -18.3465
  11   2.0000      -0.594273       -16.1710
  12   2.0000      -0.572111       -15.5679
  13   2.0000      -0.499167       -13.5830
  14   2.0000      -0.448129       -12.1942
  15   2.0000      -0.444075       -12.0839
  16   2.0000      -0.414162       -11.2699
  17   2.0000      -0.409401       -11.1404
  18   2.0000      -0.395839       -10.7713
  19   2.0000      -0.372493       -10.1360
  20   2.0000      -0.345622        -9.4049
  21   2.0000      -0.329797        -8.9742
  22   2.0000      -0.328718        -8.9449
  23   2.0000      -0.242512        -6.5991
  24   2.0000      -0.232815        -6.3352
  25   0.0000       0.005038         0.1371
  26   0.0000       0.010564         0.2875
  27   0.0000       0.103368         2.8128
  28   0.0000       0.129748         3.5306
  29   0.0000       0.144553         3.9335

MULLIKEN ATOMIC CHARGES
-----------------------
   0 C :   -0.126561
   1 C :   -0.094873
   2 C :   -0.108569
   3 C :   -0.095460
   4 C :   -0.130434
   5 C :    0.107344
   6 H :    0.090391
   7 C :   -0.375415
   8 H :    0.089492
   9 H :    0.094564
  10 H :    0.097465
  11 H :    0.092527
  12 H :    0.111188
  13 H :    0.124160
  14 H :    0.124181
Sum of atomic charges:    0.0000000

LOEWDIN ATOMIC CHARGES
----------------------
   0 C :   -0.083416
   1 C :   -0.074929
   2 C :   -0.087939
   3 C :   -0.075536
   4 C :   -0.086563
   5 C :   -0.014862
   6 H :    0.074355
   7 C :   -0.195637
   8 H :    0.074510
   9 H :    0.076328
  10 H :    0.076300
  11 H :    0.075792
  12 H :    0.076260
  13 H :    0.082665
  14 H :    0.082672

  Mayer bond orders larger than 0.1
B(  0-C ,  1-C ) :   1.4452 B(  0-C ,  5-C ) :   1.4260 B(  0-C ,  8-H ) :   0.9423
B(  1-C ,  2-C ) :   1.4414 B(  1-C ,  9-H ) :   0.9423 B(  2-C ,  3-C ) :   1.4557
B(  2-C , 10-H ) :   0.9428 B(  3-C ,  4-C ) :   1.4337 B(  3-C , 11-H ) :   0.9424
B(  4-C ,  5-C ) :   1.4477 B(  4-C ,  6-H ) :   0.9384 B(  5-C ,  7-C ) :   0.9959
B(  7-C , 12-H ) :   0.9618 B(  7-C , 13-H ) :   0.9533 B(  7-C , 14-H ) :   0.9533

FINAL SINGLE POINT ENERGY      -271.391163643322

DIPOLE MOMENT
-------------
                                X             Y             Z
Electronic contribution:      0.20576      -3.28776       0.00000
Nuclear contribution   :     -0.23656       3.44668       0.00000
                        -----------------------------------------
Total Dipole Moment    :     -0.03080       0.15891       0.00000
                        -----------------------------------------
Magnitude (a.u.)       :      0.16187
Magnitude (Debye)      :      0.41145

VIBRATIONAL FREQUENCIES
-----------------------

   0:         0.00 cm**-1
   1:         0.00 cm**-1
   2:         0.00 cm**-1
   3:         0.00 cm**-1
   4:         0.00 cm**-1
   5:         0.00 cm**-1
   6:       -30.64 cm**-1 ***imaginary mode***
   7:       205.25 cm**-1
   8:       338.82 cm**-1
   9:       412.20 cm**-1
  10:       473.81 cm**-1
  11:       529.89 cm**-1
  12:       635.13 cm**-1
  13:       707.57 cm**-1
  14:       740.15 cm**-1
  15:       807.64 cm**-1
  16:       855.27 cm**-1
  17:       904.89 cm**-1
  18:       967.72 cm**-1
  19:       992.65 cm**-1
  20:      1006.86 cm**-1
  21:      1018.07 cm**-1
  22:      1055.70 cm**-1
  23:      1071.15 cm**-1
  24:      1115.13 cm**-1
  25:      1182.29 cm**-1
  26:      1200.55 cm**-1
  27:      1252.24 cm**-1
  28:      1346.22 cm**-1
  29:      1361.02 cm**-1
  30:      1418.22 cm**-1
  31:      1474.79 cm**-1
  32:      1492.61 cm**-1
  33:      1508.18 cm**-1
  34:      1543.32 cm**-1
  35:      1647.04 cm**-1
  36:      1662.61 cm**-1
  37:      3039.49 cm**-1
  38:      3113.01 cm**-1
  39:      3113.63 cm**-1
  40:      3170.70 cm**-1
  41:      3172.66 cm**-1
  42:      3183.38 cm**-1
  43:      3192.36 cm**-1
  44:      3201.67 cm**-1

IR SPECTRUM
-----------

 Mode    freq (cm**-1)   T**2         TX         TY         TZ
-------------------------------------------------------------------
   7:       205.25    1.625168  ( -0.036253  -0.007616   1.274283)
   8:       338.82    0.251351  (  0.499636  -0.040380  -0.009200)
   9:       412.20    0.012416  (  0.014908  -0.019287   0.108728)
  10:       473.81    6.550666  ( -0.007344  -0.012747  -2.559385)
  11:       529.89    0.648296  ( -0.040523  -0.804142   0.002979)
  12:       635.13    0.087848  (  0.284416   0.083399   0.000186)
  13:       707.57   18.790996  ( -0.015993   0.033147  -4.334702)
  14:       740.15   43.658728  ( -0.022162  -0.014213   6.607423)
  15:       807.64    0.631716  ( -0.192251   0.771189   0.004819)
  16:       855.27    0.014054  (  0.031278   0.035077  -0.108835)
  17:       904.89    0.564410  (  0.004507  -0.012042   0.751162)
  18:       967.72    0.002460  ( -0.009248  -0.020444   0.044230)
  19:       992.65    0.093475  ( -0.013342  -0.017019  -0.304972)
  20:      1006.86    1.711827  (  0.323506  -1.267615  -0.017952)
  21:      1018.07    1.010696  ( -0.069962   1.002869   0.007421)
  22:      1055.70    2.766544  ( -0.024045   1.663019   0.018229)
  23:      1071.15    5.010245  (  0.004808  -0.055418   2.237666)
  24:      1115.13    6.676408  ( -2.566752   0.296777  -0.010678)
  25:      1182.29    1.798349  ( -1.326264   0.198428   0.000586)
  26:      1200.55    1.209320  ( -0.122614   1.092833  -0.000890)
  27:      1252.24    1.686781  (  0.309661  -1.261263   0.010286)
  28:      1346.22    0.679776  ( -0.517288  -0.642003   0.004617)
  29:      1361.02    0.272609  (  0.307794  -0.421742  -0.002383)
  30:      1418.22    0.318157  (  0.548821   0.126909  -0.029102)
  31:      1474.79    1.107519  (  1.008879  -0.297352   0.035571)
  32:      1492.61    5.686728  (  0.009440   0.008950   2.384651)
  33:      1508.18   11.944195  (  3.422528   0.479596  -0.021960)
  34:      1543.32   16.668608  (  0.133231  -4.080538   0.008372)
  35:      1647.04    0.463965  (  0.678234   0.062775  -0.004714)
  36:      1662.61    9.269563  ( -0.212964   3.037130  -0.007059)
  37:      3039.49   33.818668  ( -0.575935   5.786782   0.011220)
  38:      3113.01   22.565114  (  4.443028   0.994447  -1.354878)
  39:      3113.63   20.783090  ( -1.397481  -0.292890  -4.329475)
  40:      3170.70   10.962885  ( -0.843769   3.201707  -0.003630)
  41:      3172.66    4.688006  ( -2.061886  -0.660782  -0.001135)
  42:      3183.38   16.278786  ( -0.032012   4.034567  -0.005756)
  43:      3192.36   50.886166  (  7.112883   0.541351  -0.000117)
  44:      3201.67   16.415811  ( -0.388659   4.032958   0.002151)

--------------------------
THERMOCHEMISTRY AT 298.15K
--------------------------

Temperature         ... 298.15 K
Pressure            ... 1.00 atm
Total Mass          ... 92.14 AMU

Throughout the following assumptions are being made:
  (1) The electronic state is orbitally nondegenerate
  (2) There are no thermally accessible electronically excited states
  (3) Hindered rotations indicated by low frequency modes are not
      treated as such but are treated as vibrations and this may
      cause some error
  (4) All equations used are the standard statistical mechanics
      equations for an ideal gas
  (5) All vibrations are strictly harmonic

freq.     205.25  E(vib)   ...       0.35
freq.     338.82  E(vib)   ...       0.23
freq.     412.20  E(vib)   ...       0.19
freq.     473.81  E(vib)   ...       0.15
freq.     529.89  E(vib)   ...       0.13
freq.     635.13  E(vib)   ...       0.09
freq.     707.57  E(vib)   ...       0.07
freq.     740.15  E(vib)   ...       0.06
freq.     807.64  E(vib)   ...       0.05
freq.     855.27  E(vib)   ...       0.04
freq.     904.89  E(vib)   ...       0.03
freq.     967.72  E(vib)   ...       0.03
freq.     992.65  E(vib)   ...       0.02
freq.    1006.86  E(vib)   ...       0.02
freq.    1018.07  E(vib)   ...       0.02
freq.    1055.70  E(vib)   ...       0.02
freq.    1071.15  E(vib)   ...       0.02
freq.    1115.13  E(vib)   ...       0.01
freq.    1182.29  E(vib)   ...       0.01
freq.    1200.55  E(vib)   ...       0.01
freq.    1252.24  E(vib)   ...       0.01
freq.    1346.22  E(vib)   ...       0.01
freq.    1361.02  E(vib)   ...       0.01
freq.    1418.22  E(vib)   ...       0.00
freq.    1474.79  E(vib)   ...       0.00
freq.    1492.61  E(vib)   ...       0.00
freq.    1508.18  E(vib)   ...       0.00
freq.    1543.32  E(vib)   ...       0.00
freq.    1647.04  E(vib)   ...       0.00
freq.    1662.61  E(vib)   ...       0.00
freq.    3039.49  E(vib)   ...       0.00
freq.    3113.01  E(vib)   ...       0.00
freq.    3113.63  E(vib)   ...       0.00
freq.    3170.70  E(vib)   ...       0.00
freq.    3172.66  E(vib)   ...       0.00
freq.    3183.38  E(vib)   ...       0.00
freq.    3192.36  E(vib)   ...       0.00
freq.    3201.67  E(vib)   ...       0.00

------------
INNER ENERGY
------------

The inner energy is: U= E(el) + E(ZPE) + E(vib) + E(rot) + E(trans)
    E(el)   - is the total energy from the electronic structure calculation
              = E(kin-el) + E(nuc-el) + E(el-el) + E(nuc-nuc)
    E(ZPE)  - the the zero temperature vibrational energy from the frequency calculation
    E(vib)  - the the finite temperature correction to E(ZPE) due to population
              of excited vibrational states
    E(rot)  - is the rotational thermal energy
    E(trans)- is the translational thermal energy

Summary of contributions to the inner energy U:
Electronic energy                ...   -271.39116364 Eh
Zero point energy                ...      0.12783689 Eh      80.22 kcal/mol
Thermal vibrational correction   ...      0.00254194 Eh       1.60 kcal/mol
Thermal rotational correction    ...      0.00141627 Eh       0.89 kcal/mol
Thermal translational correction ...      0.00141627 Eh       0.89 kcal/mol
-----------------------------------------------------------------------
Total thermal energy                   -271.25795227 Eh

Summary of corrections to the electronic energy:
(perhaps to be used in another calculation)
Total thermal correction                  0.00537448 Eh       3.37 kcal/mol
Non-thermal (ZPE) correction              0.12783689 Eh      80.22 kcal/mol
-----------------------------------------------------------------------
Total correction                          0.13321137 Eh      83.59 kcal/mol

--------
ENTHALPY
--------

The enthalpy is H = U + kB*T
                kB is Boltzmann's constant
Total free energy                 ...   -271.25795227 Eh
Thermal Enthalpy correction       ...      0.00094421 Eh       0.59 kcal/mol
-----------------------------------------------------------------------
Total Enthalpy                    ...   -271.25700806 Eh

Vibrational entropy computed according to the QRRHO of S. Grimme
Chem.Eur.J. 2012 18 9955

-------
ENTROPY
-------

The entropy contributions are T*S = T*(S(el)+S(vib)+S(rot)+S(trans)
     S(el)   - electronic entropy
     S(vib)  - vibrational entropy
     S(rot)  - rotational entropy
     S(trans)- translational entropy
The entropies will be listed as mutliplied by the temperature to get
units of energy

Electronic entropy                ...      0.00000000 Eh      0.00 kcal/mol
Vibrational entropy               ...      0.00371910 Eh      2.33 kcal/mol
Rotational entropy                ...      0.01177949 Eh      7.39 kcal/mol
Translational entropy             ...      0.01875532 Eh     11.77 kcal/mol
-----------------------------------------------------------------------
Final entropy term                ...      0.03425391 Eh     21.49 kcal/mol

CAUTION: The rotational entropy is not quite correctly treated here
         because it includes a symmetry number that is not yet correctly
         implemented in ORCA!
For a nonlinear molecule the correct rotational entropy is:
    S(rot) = R*(ln(qrot/sn)+1.5)
    R    = 8.31441 J/mol/K = 1.987191683e-3 kcal/mol/K
    qrot = 175341.2112217
    sn is the rotational symmetry number. We have assumed 3 here
       if it is different for your molecule then you should correct
       the printed rotational entropy by manually evaluating the equation
       as given above

For convenience we print out the resulting values for sn=1 - 12:
 sn= 1  qrot/sn=  175341.2112 T*S(rot)=     8.04 kcal/mol T*S(tot)=    22.15 kcal/mol
 sn= 2  qrot/sn=   87670.6056 T*S(rot)=     7.63 kcal/mol T*S(tot)=    21.73 kcal/mol
 sn= 3  qrot/sn=   58447.0704 T*S(rot)=     7.39 kcal/mol T*S(tot)=    21.49 kcal/mol
 sn= 4  qrot/sn=   43835.3028 T*S(rot)=     7.22 kcal/mol T*S(tot)=    21.32 kcal/mol
 sn= 5  qrot/sn=   35068.2422 T*S(rot)=     7.09 kcal/mol T*S(tot)=    21.19 kcal/mol
 sn= 6  qrot/sn=   29223.5352 T*S(rot)=     6.98 kcal/mol T*S(tot)=    21.08 kcal/mol
 sn= 7  qrot/sn=   25048.7445 T*S(rot)=     6.89 kcal/mol T*S(tot)=    20.99 kcal/mol
 sn= 8  qrot/sn=   21917.6514 T*S(rot)=     6.81 kcal/mol T*S(tot)=    20.91 kcal/mol
 sn= 9  qrot/sn=   19482.3568 T*S(rot)=     6.74 kcal/mol T*S(tot)=    20.84 kcal/mol
 sn=10  qrot/sn=   17534.1211 T*S(rot)=     6.68 kcal/mol T*S(tot)=    20.78 kcal/mol
 sn=11  qrot/sn=   15940.1101 T*S(rot)=     6.62 kcal/mol T*S(tot)=    20.72 kcal/mol
 sn=12  qrot/sn=   14611.7676 T*S(rot)=     6.57 kcal/mol T*S(tot)=    20.67 kcal/mol

-------------------
GIBBS FREE ENTHALPY
-------------------

The Gibbs free enthalpy is G = H - T*S

Total enthalpy                    ...   -271.25700806 Eh
Total entropy correction          ...     -0.03425391 Eh    -21.49 kcal/mol
-----------------------------------------------------------------------
Final Gibbs free enthalpy         ...   -271.29126197 Eh

                             ****ORCA TERMINATED NORMALLY****
TOTAL RUN TIME: 0 days 2 hours 32 minutes 6 seconds 300 msec
