                         Program Version 4.0.1 -  RELEASE  -
|  1> ! B3LYP 6-31G(d,p) Freq
|  2>
|  3> * xyzfile 0 1 o-nitrotolueno.xyz
|  4>
|  5>                          ****END OF INPUT****

CARTESIAN COORDINATES (ANGSTROEM)
---------------------------------
  C     -4.425010    1.443660   -0.121420
  C     -4.369280    0.047660   -0.188850
  C     -3.155630   -0.619410   -0.029730
  C     -1.991260    0.107800    0.206770
  C     -2.054140    1.508020    0.281080
  C     -3.265320    2.203040    0.102280
  N     -0.808210    2.218300    0.551910
  C     -3.375280    3.700730    0.162500
  H     -5.388040    1.935650   -0.250590
  H     -5.279640   -0.520750   -0.368290
  H     -3.119510   -1.704840   -0.086710
  H     -1.047040   -0.417380    0.336000
  H     -2.572330    4.175680   -0.410300
  H     -3.340820    4.042740    1.201350
  H     -4.318840    4.045740   -0.274570
  O     -0.817620    3.076420    1.444820
  O      0.183510    1.893410   -0.116250

 Total Charge           Charge          ....    0
 Multiplicity           Mult            ....    1
 Number of Electrons    NEL             ....   72
 Basis Dimension        Dim             ....  175

ORBITAL ENERGIES
----------------

  NO   OCC          E(Eh)            E(eV)
   0   2.0000     -19.177341      -521.8420
   1   2.0000     -19.176405      -521.8165
   2   2.0000     -14.562880      -396.2761
   3   2.0000     -10.245469      -278.7934
   4   2.0000     -10.221810      -278.1496
   5   2.0000     -10.212233      -277.8890
   6   2.0000     -10.206031      -277.7202
   7   2.0000     -10.203741      -277.6579
   8   2.0000     -10.203570      -277.6532
   9   2.0000     -10.187577      -277.2181
  10   2.0000      -1.214933       -33.0600
  11   2.0000      -1.043848       -28.4046
  12   2.0000      -0.886081       -24.1115
  13   2.0000      -0.803688       -21.8695
  14   2.0000      -0.788179       -21.4474
  15   2.0000      -0.716676       -19.5017
  16   2.0000      -0.680631       -18.5209
  17   2.0000      -0.619331       -16.8528
  18   2.0000      -0.587744       -15.9933
  19   2.0000      -0.545763       -14.8510
  20   2.0000      -0.526792       -14.3347
  21   2.0000      -0.506680       -13.7875
  22   2.0000      -0.499151       -13.5826
  23   2.0000      -0.467083       -12.7100
  24   2.0000      -0.454956       -12.3800
  25   2.0000      -0.433247       -11.7893
  26   2.0000      -0.426046       -11.5933
  27   2.0000      -0.400167       -10.8891
  28   2.0000      -0.373870       -10.1735
  29   2.0000      -0.372204       -10.1282
  30   2.0000      -0.362867        -9.8741
  31   2.0000      -0.305573        -8.3151
  32   2.0000      -0.301316        -8.1992
  33   2.0000      -0.298882        -8.1330
  34   2.0000      -0.264550        -7.1988
  35   2.0000      -0.260225        -7.0811
  36   0.0000      -0.078657        -2.1404
  37   0.0000      -0.019564        -0.5324
  38   0.0000      -0.010218        -0.2781
  39   0.0000       0.081176         2.2089
  40   0.0000       0.111314         3.0290

MULLIKEN ATOMIC CHARGES
-----------------------
   0 C :   -0.132197
   1 C :   -0.062848
   2 C :   -0.102526
   3 C :   -0.067030
   4 C :    0.179512
   5 C :    0.126378
   6 N :    0.335643
   7 C :   -0.355932
   8 H :    0.097377
   9 H :    0.097865
  10 H :    0.106488
  11 H :    0.124022
  12 H :    0.127551
  13 H :    0.149173
  14 H :    0.106821
  15 O :   -0.365497
  16 O :   -0.364801
Sum of atomic charges:   -0.0000000

LOEWDIN ATOMIC CHARGES
----------------------
   0 C :   -0.069819
   1 C :   -0.051547
   2 C :   -0.072261
   3 C :   -0.047196
   4 C :   -0.003915
   5 C :    0.007635
   6 N :    0.259624
   7 C :   -0.190060
   8 H :    0.079607
   9 H :    0.079728
  10 H :    0.082142
  11 H :    0.092027
  12 H :    0.085283
  13 H :    0.095360
  14 H :    0.076464
  15 O :   -0.210959
  16 O :   -0.212112

  Mayer bond orders larger than 0.1
B(  0-C ,  1-C ) :   1.4371 B(  0-C ,  5-C ) :   1.4276 B(  0-C ,  8-H ) :   0.9358
B(  1-C ,  2-C ) :   1.4379 B(  1-C ,  9-H ) :   0.9417 B(  2-C ,  3-C ) :   1.4432
B(  2-C , 10-H ) :   0.9398 B(  3-C ,  4-C ) :   1.3896 B(  3-C , 11-H ) :   0.9311
B(  4-C ,  5-C ) :   1.3952 B(  4-C ,  6-N ) :   0.7600 B(  5-C ,  7-C ) :   1.0128
B(  6-N , 15-O ) :   1.5139 B(  6-N , 16-O ) :   1.5345 B(  7-C , 12-H ) :   0.9508
B(  7-C , 13-H ) :   0.9400 B(  7-C , 14-H ) :   0.9530 B( 15-O , 16-O ) :   0.2896

FINAL SINGLE POINT ENERGY      -475.795353004129

DIPOLE MOMENT
-------------
                                X             Y             Z
Electronic contribution:      6.73277      -0.81833       1.20237
Nuclear contribution   :     -8.19120       0.19090      -1.48075
                        -----------------------------------------
Total Dipole Moment    :     -1.45843      -0.62742      -0.27838
                        -----------------------------------------
Magnitude (a.u.)       :      1.61189
Magnitude (Debye)      :      4.09709

VIBRATIONAL FREQUENCIES
-----------------------

   0:         0.00 cm**-1
   1:         0.00 cm**-1
   2:         0.00 cm**-1
   3:         0.00 cm**-1
   4:         0.00 cm**-1
   5:         0.00 cm**-1
   6:        91.00 cm**-1
   7:       137.36 cm**-1
   8:       158.67 cm**-1
   9:       220.70 cm**-1
  10:       232.40 cm**-1
  11:       339.00 cm**-1
  12:       390.10 cm**-1
  13:       427.79 cm**-1
  14:       485.53 cm**-1
  15:       551.62 cm**-1
  16:       587.78 cm**-1
  17:       677.84 cm**-1
  18:       717.77 cm**-1
  19:       754.43 cm**-1
  20:       803.58 cm**-1
  21:       808.89 cm**-1
  22:       863.34 cm**-1
  23:       890.51 cm**-1
  24:       968.66 cm**-1
  25:      1002.60 cm**-1
  26:      1015.12 cm**-1
  27:      1072.58 cm**-1
  28:      1077.89 cm**-1
  29:      1121.06 cm**-1
  30:      1177.61 cm**-1
  31:      1196.98 cm**-1
  32:      1232.81 cm**-1
  33:      1309.35 cm**-1
  34:      1339.01 cm**-1
  35:      1398.18 cm**-1
  36:      1432.24 cm**-1
  37:      1469.04 cm**-1
  38:      1501.06 cm**-1
  39:      1512.00 cm**-1
  40:      1520.12 cm**-1
  41:      1585.41 cm**-1
  42:      1631.64 cm**-1
  43:      1645.57 cm**-1
  44:      3046.40 cm**-1
  45:      3110.52 cm**-1
  46:      3129.27 cm**-1
  47:      3164.11 cm**-1
  48:      3177.13 cm**-1
  49:      3186.15 cm**-1
  50:      3197.26 cm**-1

IR SPECTRUM
-----------

 Mode    freq (cm**-1)   T**2         TX         TY         TZ
-------------------------------------------------------------------
   6:        91.00    0.899660  ( -0.885574  -0.299296   0.160749)
   7:       137.36    1.472307  (  0.004499  -0.063781   1.211701)
   8:       158.67    0.222053  (  0.426640  -0.187852   0.068868)
   9:       220.70    3.817171  (  1.101395  -1.507434   0.575972)
  10:       232.40    0.488142  ( -0.214504  -0.104402  -0.656681)
  11:       339.00    1.855518  ( -0.963616  -0.927895  -0.256855)
  12:       390.10    0.727823  (  0.445643   0.720465  -0.100775)
  13:       427.79    0.272482  (  0.157779  -0.490251  -0.085102)
  14:       485.53    4.264170  (  0.583751   0.025248   1.980598)
  15:       551.62    0.537471  ( -0.724708  -0.076418  -0.080183)
  16:       587.78    0.526879  ( -0.537581  -0.341001   0.348717)
  17:       677.84   11.332205  (  2.964743   1.565666   0.301985)
  18:       717.77    2.265167  ( -1.421442  -0.396294  -0.296008)
  19:       754.43   39.263423  (  0.549442   1.038734  -6.154882)
  20:       803.58   15.189369  (  2.981278   0.648523  -2.425029)
  21:       808.89    5.955650  ( -0.785586  -1.180754  -1.986032)
  22:       863.34   17.588621  ( -3.553804  -1.996402  -0.986651)
  23:       890.51    0.996888  ( -0.827284  -0.555583  -0.061783)
  24:       968.66    1.105600  ( -0.642950  -0.383694   0.738236)
  25:      1002.60    0.209167  (  0.249248   0.316489   0.216511)
  26:      1015.12    0.085562  (  0.021889   0.266564  -0.118435)
  27:      1072.58    3.176649  (  0.213873  -1.352315  -1.141119)
  28:      1077.89    1.733032  (  0.905270   0.288376  -0.911240)
  29:      1121.06    2.606158  ( -0.961716   1.146240   0.606131)
  30:      1177.61    1.640825  ( -0.860237   0.922626   0.222662)
  31:      1196.98    1.009608  (  0.957615  -0.184132   0.242234)
  32:      1232.81    1.946851  (  1.268023   0.422944   0.400110)
  33:      1309.35    0.527276  (  0.062323  -0.550739   0.469125)
  34:      1339.01    6.987774  ( -2.066770   1.646609   0.070112)
  35:      1398.18  204.433365  (-12.330000  -6.758038  -2.594875)
  36:      1432.24    0.956281  (  0.433552  -0.739779  -0.470149)
  37:      1469.04   10.569443  ( -3.021994   0.188173   1.183886)
  38:      1501.06   12.875030  (  3.345152  -1.289160  -0.151850)
  39:      1512.00    5.076462  ( -0.960776   0.292012  -2.016953)
  40:      1520.12    8.769426  (  1.223978   2.006651  -1.801293)
  41:      1585.41  215.406156  ( -6.427964   7.737448  10.687344)
  42:      1631.64    7.503281  ( -2.424766   0.147855   1.265674)
  43:      1645.57   16.272826  (  0.492028  -3.309502  -2.253426)
  44:      3046.40   14.584649  (  1.143754  -3.533795   0.888129)
  45:      3110.52   14.568328  ( -3.708781   0.604357  -0.669345)
  46:      3129.27    6.957880  ( -0.832319  -0.818141   2.365538)
  47:      3164.11    3.500098  (  0.751521  -1.710464   0.098111)
  48:      3177.13    8.136235  (  2.411049  -1.498297   0.279612)
  49:      3186.15    8.494246  (  2.574050   1.224457   0.607634)
  50:      3197.26    9.749170  ( -1.236692  -2.854399  -0.268642)

--------------------------
THERMOCHEMISTRY AT 298.15K
--------------------------

Temperature         ... 298.15 K
Pressure            ... 1.00 atm
Total Mass          ... 137.14 AMU

Throughout the following assumptions are being made:
  (1) The electronic state is orbitally nondegenerate
  (2) There are no thermally accessible electronically excited states
  (3) Hindered rotations indicated by low frequency modes are not
      treated as such but are treated as vibrations and this may
      cause some error
  (4) All equations used are the standard statistical mechanics
      equations for an ideal gas
  (5) All vibrations are strictly harmonic

freq.      91.00  E(vib)   ...       0.47
freq.     137.36  E(vib)   ...       0.42
freq.     158.67  E(vib)   ...       0.39
freq.     220.70  E(vib)   ...       0.33
freq.     232.40  E(vib)   ...       0.32
freq.     339.00  E(vib)   ...       0.23
freq.     390.10  E(vib)   ...       0.20
freq.     427.79  E(vib)   ...       0.18
freq.     485.53  E(vib)   ...       0.15
freq.     551.62  E(vib)   ...       0.12
freq.     587.78  E(vib)   ...       0.10
freq.     677.84  E(vib)   ...       0.08
freq.     717.77  E(vib)   ...       0.07
freq.     754.43  E(vib)   ...       0.06
freq.     803.58  E(vib)   ...       0.05
freq.     808.89  E(vib)   ...       0.05
freq.     863.34  E(vib)   ...       0.04
freq.     890.51  E(vib)   ...       0.04
freq.     968.66  E(vib)   ...       0.03
freq.    1002.60  E(vib)   ...       0.02
freq.    1015.12  E(vib)   ...       0.02
freq.    1072.58  E(vib)   ...       0.02
freq.    1077.89  E(vib)   ...       0.02
freq.    1121.06  E(vib)   ...       0.01
freq.    1177.61  E(vib)   ...       0.01
freq.    1196.98  E(vib)   ...       0.01
freq.    1232.81  E(vib)   ...       0.01
freq.    1309.35  E(vib)   ...       0.01
freq.    1339.01  E(vib)   ...       0.01
freq.    1398.18  E(vib)   ...       0.00
freq.    1432.24  E(vib)   ...       0.00
freq.    1469.04  E(vib)   ...       0.00
freq.    1501.06  E(vib)   ...       0.00
freq.    1512.00  E(vib)   ...       0.00
freq.    1520.12  E(vib)   ...       0.00
freq.    1585.41  E(vib)   ...       0.00
freq.    1631.64  E(vib)   ...       0.00
freq.    1645.57  E(vib)   ...       0.00
freq.    3046.40  E(vib)   ...       0.00
freq.    3110.52  E(vib)   ...       0.00
freq.    3129.27  E(vib)   ...       0.00
freq.    3164.11  E(vib)   ...       0.00
freq.    3177.13  E(vib)   ...       0.00
freq.    3186.15  E(vib)   ...       0.00
freq.    3197.26  E(vib)   ...       0.00

------------
INNER ENERGY
------------

The inner energy is: U= E(el) + E(ZPE) + E(vib) + E(rot) + E(trans)
    E(el)   - is the total energy from the electronic structure calculation
              = E(kin-el) + E(nuc-el) + E(el-el) + E(nuc-nuc)
    E(ZPE)  - the the zero temperature vibrational energy from the frequency calculation
    E(vib)  - the the finite temperature correction to E(ZPE) due to population
              of excited vibrational states
    E(rot)  - is the rotational thermal energy
    E(trans)- is the translational thermal energy

Summary of contributions to the inner energy U:
Electronic energy                ...   -475.79535300 Eh
Zero point energy                ...      0.13067130 Eh      82.00 kcal/mol
Thermal vibrational correction   ...      0.00554852 Eh       3.48 kcal/mol
Thermal rotational correction    ...      0.00141627 Eh       0.89 kcal/mol
Thermal translational correction ...      0.00141627 Eh       0.89 kcal/mol
-----------------------------------------------------------------------
Total thermal energy                   -475.65630064 Eh

Summary of corrections to the electronic energy:
(perhaps to be used in another calculation)
Total thermal correction                  0.00838106 Eh       5.26 kcal/mol
Non-thermal (ZPE) correction              0.13067130 Eh      82.00 kcal/mol
-----------------------------------------------------------------------
Total correction                          0.13905236 Eh      87.26 kcal/mol

--------
ENTHALPY
--------

The enthalpy is H = U + kB*T
                kB is Boltzmann's constant
Total free energy                 ...   -475.65630064 Eh
Thermal Enthalpy correction       ...      0.00094421 Eh       0.59 kcal/mol
-----------------------------------------------------------------------
Total Enthalpy                    ...   -475.65535643 Eh

Vibrational entropy computed according to the QRRHO of S. Grimme
Chem.Eur.J. 2012 18 9955

-------
ENTROPY
-------

The entropy contributions are T*S = T*(S(el)+S(vib)+S(rot)+S(trans)
     S(el)   - electronic entropy
     S(vib)  - vibrational entropy
     S(rot)  - rotational entropy
     S(trans)- translational entropy
The entropies will be listed as mutliplied by the temperature to get
units of energy

Electronic entropy                ...      0.00000000 Eh      0.00 kcal/mol
Vibrational entropy               ...      0.00926785 Eh      5.82 kcal/mol
Rotational entropy                ...      0.01289200 Eh      8.09 kcal/mol
Translational entropy             ...      0.01931853 Eh     12.12 kcal/mol
-----------------------------------------------------------------------
Final entropy term                ...      0.04147837 Eh     26.03 kcal/mol

CAUTION: The rotational entropy is not quite correctly treated here
         because it includes a symmetry number that is not yet correctly
         implemented in ORCA!
For a nonlinear molecule the correct rotational entropy is:
    S(rot) = R*(ln(qrot/sn)+1.5)
    R    = 8.31441 J/mol/K = 1.987191683e-3 kcal/mol/K
    qrot = 569646.0231375
    sn is the rotational symmetry number. We have assumed 3 here
       if it is different for your molecule then you should correct
       the printed rotational entropy by manually evaluating the equation
       as given above

For convenience we print out the resulting values for sn=1 - 12:
 sn= 1  qrot/sn=  569646.0231 T*S(rot)=     8.74 kcal/mol T*S(tot)=    26.68 kcal/mol
 sn= 2  qrot/sn=  284823.0116 T*S(rot)=     8.33 kcal/mol T*S(tot)=    26.27 kcal/mol
 sn= 3  qrot/sn=  189882.0077 T*S(rot)=     8.09 kcal/mol T*S(tot)=    26.03 kcal/mol
 sn= 4  qrot/sn=  142411.5058 T*S(rot)=     7.92 kcal/mol T*S(tot)=    25.86 kcal/mol
 sn= 5  qrot/sn=  113929.2046 T*S(rot)=     7.79 kcal/mol T*S(tot)=    25.73 kcal/mol
 sn= 6  qrot/sn=   94941.0039 T*S(rot)=     7.68 kcal/mol T*S(tot)=    25.62 kcal/mol
 sn= 7  qrot/sn=   81378.0033 T*S(rot)=     7.59 kcal/mol T*S(tot)=    25.53 kcal/mol
 sn= 8  qrot/sn=   71205.7529 T*S(rot)=     7.51 kcal/mol T*S(tot)=    25.45 kcal/mol
 sn= 9  qrot/sn=   63294.0026 T*S(rot)=     7.44 kcal/mol T*S(tot)=    25.38 kcal/mol
 sn=10  qrot/sn=   56964.6023 T*S(rot)=     7.38 kcal/mol T*S(tot)=    25.31 kcal/mol
 sn=11  qrot/sn=   51786.0021 T*S(rot)=     7.32 kcal/mol T*S(tot)=    25.26 kcal/mol
 sn=12  qrot/sn=   47470.5019 T*S(rot)=     7.27 kcal/mol T*S(tot)=    25.21 kcal/mol

-------------------
GIBBS FREE ENTHALPY
-------------------

                             ****ORCA TERMINATED NORMALLY****
TOTAL RUN TIME: 0 days 1 hours 27 minutes 40 seconds 332 msec
