                         Program Version 4.0.1 -  RELEASE  -
|  1> ! B3LYP 6-31G(d,p) CPCM(water) NumFreq
|  2>
|  3> * xyzfile 0 1 etanamina.xyz
|  4>
|  5>                          ****END OF INPUT****

CARTESIAN COORDINATES (ANGSTROEM)
---------------------------------
  C     -4.713560   -0.418810    0.019530
  C     -3.796290    0.790000   -0.054830
  H     -5.697600   -0.122840    0.396940
  H     -4.309710   -1.182170    0.693060
  H     -4.853330   -0.871820   -0.967740
  N     -2.477980    0.420770   -0.555330
  H     -3.691820    1.239420    0.938010
  H     -4.232390    1.548020   -0.713490
  H     -2.570090   -0.009710   -1.474880
  H     -2.071810   -0.294150    0.047390

 Total Charge           Charge          ....    0
 Multiplicity           Mult            ....    1
 Number of Electrons    NEL             ....   26
 Basis Dimension        Dim             ....   77

ORBITAL ENERGIES
----------------

  NO   OCC          E(Eh)            E(eV)
   0   2.0000     -14.295050      -388.9881
   1   2.0000     -10.189445      -277.2689
   2   2.0000     -10.155289      -276.3395
   3   2.0000      -0.868433       -23.6313
   4   2.0000      -0.713170       -19.4063
   5   2.0000      -0.596590       -16.2341
   6   2.0000      -0.483986       -13.1699
   7   2.0000      -0.426024       -11.5927
   8   2.0000      -0.396086       -10.7780
   9   2.0000      -0.391296       -10.6477
  10   2.0000      -0.350494        -9.5374
  11   2.0000      -0.328425        -8.9369
  12   2.0000      -0.225233        -6.1289
  13   0.0000       0.097294         2.6475
  14   0.0000       0.147411         4.0112
  15   0.0000       0.148196         4.0326
  16   0.0000       0.164717         4.4822
  17   0.0000       0.184754         5.0274

MULLIKEN ATOMIC CHARGES
-----------------------
   0 C :   -0.322123
   1 C :   -0.062931
   2 H :    0.093494
   3 H :    0.106585
   4 H :    0.104050
   5 N :   -0.638302
   6 H :    0.104180
   7 H :    0.106314
   8 H :    0.254098
   9 H :    0.254636
Sum of atomic charges:   -0.0000000

LOEWDIN ATOMIC CHARGES
----------------------
   0 C :   -0.218387
   1 C :   -0.071805
   2 H :    0.066445
   3 H :    0.068571
   4 H :    0.067936
   5 N :   -0.306581
   6 H :    0.065943
   7 H :    0.066375
   8 H :    0.130681
   9 H :    0.130823

  Mayer bond orders larger than 0.1
B(  0-C ,  1-C ) :   1.0106 B(  0-C ,  2-H ) :   0.9569 B(  0-C ,  3-H ) :   0.9657
B(  0-C ,  4-H ) :   0.9657 B(  1-C ,  5-N ) :   1.0158 B(  1-C ,  6-H ) :   0.9585
B(  1-C ,  7-H ) :   0.9587 B(  5-N ,  8-H ) :   0.9091 B(  5-N ,  9-H ) :   0.9094

FINAL SINGLE POINT ENERGY      -135.091705344674

DIPOLE MOMENT
-------------
                                X             Y             Z
Electronic contribution:      1.40931       0.69520      -0.33003
Nuclear contribution   :     -1.75328      -1.26416       0.33766
                        -----------------------------------------
Total Dipole Moment    :     -0.34396      -0.56896       0.00764
                        -----------------------------------------
Magnitude (a.u.)       :      0.66489
Magnitude (Debye)      :      1.69002

VIBRATIONAL FREQUENCIES
-----------------------

   0:         0.00 cm**-1
   1:         0.00 cm**-1
   2:         0.00 cm**-1
   3:         0.00 cm**-1
   4:         0.00 cm**-1
   5:         0.00 cm**-1
   6:       257.57 cm**-1
   7:       289.82 cm**-1
   8:       418.95 cm**-1
   9:       783.75 cm**-1
  10:       903.04 cm**-1
  11:       923.45 cm**-1
  12:      1009.64 cm**-1
  13:      1086.87 cm**-1
  14:      1159.78 cm**-1
  15:      1273.47 cm**-1
  16:      1377.13 cm**-1
  17:      1384.09 cm**-1
  18:      1413.20 cm**-1
  19:      1477.10 cm**-1
  20:      1495.13 cm**-1
  21:      1505.01 cm**-1
  22:      1645.77 cm**-1
  23:      3036.28 cm**-1
  24:      3055.00 cm**-1
  25:      3092.12 cm**-1
  26:      3109.00 cm**-1
  27:      3117.50 cm**-1
  28:      3467.20 cm**-1
  29:      3545.30 cm**-1

IR SPECTRUM
-----------

 Mode    freq (cm**-1)   T**2         TX         TY         TZ
-------------------------------------------------------------------
   6:       257.57   14.349954  (  1.189069  -0.735842   3.520597)
   7:       289.82   67.997800  (  2.421994  -1.355976   7.764862)
   8:       418.95    8.298118  ( -2.735182   0.490323   0.759264)
   9:       783.75    3.510070  ( -0.752942   0.103458  -1.712439)
  10:       903.04  260.318513  ( 14.631378   5.758914  -3.616104)
  11:       923.45    9.816493  (  2.654745   1.554646  -0.593208)
  12:      1009.64    1.595017  (  0.692466  -0.022213   1.055943)
  13:      1086.87   41.127520  (  5.777859   2.363774  -1.468482)
  14:      1159.78   21.418904  ( -0.379628  -4.543442  -0.794937)
  15:      1273.47    0.009017  ( -0.013245   0.088309  -0.032289)
  16:      1377.13   22.135479  ( -4.429650  -1.171861   1.067904)
  17:      1384.09    0.792694  ( -0.324606   0.225021  -0.797929)
  18:      1413.20    7.951336  ( -2.128649  -1.810437   0.377501)
  19:      1477.10    0.482429  (  0.396753  -0.543504  -0.172101)
  20:      1495.13    6.388234  (  0.819494  -0.625586   2.307662)
  21:      1505.01    0.691673  (  0.394830  -0.689633  -0.245333)
  22:      1645.77   37.793582  (  2.300794  -5.395560  -1.840615)
  23:      3036.28   36.462905  (  3.889173   4.597579  -0.446665)
  24:      3055.00   58.762359  ( -1.596990   7.275115   1.812369)
  25:      3092.12    8.040525  (  0.868302  -0.565811   2.639401)
  26:      3109.00   87.324497  ( -6.946734   5.172026   3.509635)
  27:      3117.50  110.800781  (  3.450978  -2.014016   9.738340)
  28:      3467.20    0.093399  (  0.253543  -0.064215  -0.158085)
  29:      3545.30    0.344907  ( -0.171725   0.039473  -0.560232)

--------------------------
THERMOCHEMISTRY AT 298.15K
--------------------------

Temperature         ... 298.15 K
Pressure            ... 1.00 atm
Total Mass          ... 45.09 AMU

Throughout the following assumptions are being made:
  (1) The electronic state is orbitally nondegenerate
  (2) There are no thermally accessible electronically excited states
  (3) Hindered rotations indicated by low frequency modes are not
      treated as such but are treated as vibrations and this may
      cause some error
  (4) All equations used are the standard statistical mechanics
      equations for an ideal gas
  (5) All vibrations are strictly harmonic

freq.     257.57  E(vib)   ...       0.30
freq.     289.82  E(vib)   ...       0.27
freq.     418.95  E(vib)   ...       0.18
freq.     783.75  E(vib)   ...       0.05
freq.     903.04  E(vib)   ...       0.03
freq.     923.45  E(vib)   ...       0.03
freq.    1009.64  E(vib)   ...       0.02
freq.    1086.87  E(vib)   ...       0.02
freq.    1159.78  E(vib)   ...       0.01
freq.    1273.47  E(vib)   ...       0.01
freq.    1377.13  E(vib)   ...       0.01
freq.    1384.09  E(vib)   ...       0.00
freq.    1413.20  E(vib)   ...       0.00
freq.    1477.10  E(vib)   ...       0.00
freq.    1495.13  E(vib)   ...       0.00
freq.    1505.01  E(vib)   ...       0.00
freq.    1645.77  E(vib)   ...       0.00
freq.    3036.28  E(vib)   ...       0.00
freq.    3055.00  E(vib)   ...       0.00
freq.    3092.12  E(vib)   ...       0.00
freq.    3109.00  E(vib)   ...       0.00
freq.    3117.50  E(vib)   ...       0.00
freq.    3467.20  E(vib)   ...       0.00
freq.    3545.30  E(vib)   ...       0.00

------------
INNER ENERGY
------------

The inner energy is: U= E(el) + E(ZPE) + E(vib) + E(rot) + E(trans)
    E(el)   - is the total energy from the electronic structure calculation
              = E(kin-el) + E(nuc-el) + E(el-el) + E(nuc-nuc)
    E(ZPE)  - the the zero temperature vibrational energy from the frequency calculation
    E(vib)  - the the finite temperature correction to E(ZPE) due to population
              of excited vibrational states
    E(rot)  - is the rotational thermal energy
    E(trans)- is the translational thermal energy

Summary of contributions to the inner energy U:
Electronic energy                ...   -135.09170534 Eh
Zero point energy                ...      0.09300882 Eh      58.36 kcal/mol
Thermal vibrational correction   ...      0.00152141 Eh       0.95 kcal/mol
Thermal rotational correction    ...      0.00141627 Eh       0.89 kcal/mol
Thermal translational correction ...      0.00141627 Eh       0.89 kcal/mol
-----------------------------------------------------------------------
Total thermal energy                   -134.99434258 Eh

Summary of corrections to the electronic energy:
(perhaps to be used in another calculation)
Total thermal correction                  0.00435395 Eh       2.73 kcal/mol
Non-thermal (ZPE) correction              0.09300882 Eh      58.36 kcal/mol
-----------------------------------------------------------------------
Total correction                          0.09736277 Eh      61.10 kcal/mol

--------
ENTHALPY
--------

The enthalpy is H = U + kB*T
                kB is Boltzmann's constant
Total free energy                 ...   -134.99434258 Eh
Thermal Enthalpy correction       ...      0.00094421 Eh       0.59 kcal/mol
-----------------------------------------------------------------------
Total Enthalpy                    ...   -134.99339837 Eh

Vibrational entropy computed according to the QRRHO of S. Grimme
Chem.Eur.J. 2012 18 9955

-------
ENTROPY
-------

The entropy contributions are T*S = T*(S(el)+S(vib)+S(rot)+S(trans)
     S(el)   - electronic entropy
     S(vib)  - vibrational entropy
     S(rot)  - rotational entropy
     S(trans)- translational entropy
The entropies will be listed as mutliplied by the temperature to get
units of energy

Electronic entropy                ...      0.00000000 Eh      0.00 kcal/mol
Vibrational entropy               ...      0.00231904 Eh      1.46 kcal/mol
Rotational entropy                ...      0.00963771 Eh      6.05 kcal/mol
Translational entropy             ...      0.01774301 Eh     11.13 kcal/mol
-----------------------------------------------------------------------
Final entropy term                ...      0.02969976 Eh     18.64 kcal/mol

CAUTION: The rotational entropy is not quite correctly treated here
         because it includes a symmetry number that is not yet correctly
         implemented in ORCA!
For a nonlinear molecule the correct rotational entropy is:
    S(rot) = R*(ln(qrot/sn)+1.5)
    R    = 8.31441 J/mol/K = 1.987191683e-3 kcal/mol/K
    qrot = 18143.9357950
    sn is the rotational symmetry number. We have assumed 3 here
       if it is different for your molecule then you should correct
       the printed rotational entropy by manually evaluating the equation
       as given above

For convenience we print out the resulting values for sn=1 - 12:
 sn= 1  qrot/sn=   18143.9358 T*S(rot)=     6.70 kcal/mol T*S(tot)=    19.29 kcal/mol
 sn= 2  qrot/sn=    9071.9679 T*S(rot)=     6.29 kcal/mol T*S(tot)=    18.88 kcal/mol
 sn= 3  qrot/sn=    6047.9786 T*S(rot)=     6.05 kcal/mol T*S(tot)=    18.64 kcal/mol
 sn= 4  qrot/sn=    4535.9839 T*S(rot)=     5.88 kcal/mol T*S(tot)=    18.47 kcal/mol
 sn= 5  qrot/sn=    3628.7872 T*S(rot)=     5.75 kcal/mol T*S(tot)=    18.33 kcal/mol
 sn= 6  qrot/sn=    3023.9893 T*S(rot)=     5.64 kcal/mol T*S(tot)=    18.23 kcal/mol
 sn= 7  qrot/sn=    2591.9908 T*S(rot)=     5.55 kcal/mol T*S(tot)=    18.13 kcal/mol
 sn= 8  qrot/sn=    2267.9920 T*S(rot)=     5.47 kcal/mol T*S(tot)=    18.06 kcal/mol
 sn= 9  qrot/sn=    2015.9929 T*S(rot)=     5.40 kcal/mol T*S(tot)=    17.99 kcal/mol
 sn=10  qrot/sn=    1814.3936 T*S(rot)=     5.33 kcal/mol T*S(tot)=    17.92 kcal/mol
 sn=11  qrot/sn=    1649.4487 T*S(rot)=     5.28 kcal/mol T*S(tot)=    17.87 kcal/mol
 sn=12  qrot/sn=    1511.9946 T*S(rot)=     5.23 kcal/mol T*S(tot)=    17.82 kcal/mol

-------------------
GIBBS FREE ENTHALPY
-------------------

The Gibbs free enthalpy is G = H - T*S

Total enthalpy                    ...   -134.99339837 Eh
Total entropy correction          ...     -0.02969976 Eh    -18.64 kcal/mol
-----------------------------------------------------------------------
Final Gibbs free enthalpy         ...   -135.02309813 Eh

For completeness - the Gibbs free enthalpy minus the electronic energy
G-E(el)                           ...      0.06860722 Eh     43.05 kcal/mol

                             ****ORCA TERMINATED NORMALLY****
TOTAL RUN TIME: 0 days 0 hours 25 minutes 0 seconds 374 msec
