                         Program Version 4.0.1 -  RELEASE  -
|  1> ! B3LYP 6-31G(d,p) CPCM(toluene) NumFreq
|  2>
|  3> * xyzfile 0 1 o-nitrotolueno.xyz
|  4>
|  5>                          ****END OF INPUT****

CARTESIAN COORDINATES (ANGSTROEM)
---------------------------------
  C     -4.425010    1.443660   -0.121420
  C     -4.369280    0.047660   -0.188850
  C     -3.155630   -0.619410   -0.029730
  C     -1.991260    0.107800    0.206770
  C     -2.054140    1.508020    0.281080
  C     -3.265320    2.203040    0.102280
  N     -0.808210    2.218300    0.551910
  C     -3.375280    3.700730    0.162500
  H     -5.388040    1.935650   -0.250590
  H     -5.279640   -0.520750   -0.368290
  H     -3.119510   -1.704840   -0.086710
  H     -1.047040   -0.417380    0.336000
  H     -2.572330    4.175680   -0.410300
  H     -3.340820    4.042740    1.201350
  H     -4.318840    4.045740   -0.274570
  O     -0.817620    3.076420    1.444820
  O      0.183510    1.893410   -0.116250

 Total Charge           Charge          ....    0
 Multiplicity           Mult            ....    1
 Number of Electrons    NEL             ....   72
 Basis Dimension        Dim             ....  175

ORBITAL ENERGIES
----------------

  NO   OCC          E(Eh)            E(eV)
   0   2.0000     -19.183099      -521.9987
   1   2.0000     -19.182486      -521.9820
   2   2.0000     -14.568649      -396.4331
   3   2.0000     -10.243187      -278.7313
   4   2.0000     -10.218255      -278.0529
   5   2.0000     -10.208181      -277.7787
   6   2.0000     -10.200239      -277.5626
   7   2.0000     -10.197896      -277.4989
   8   2.0000     -10.197776      -277.4956
   9   2.0000     -10.181296      -277.0471
  10   2.0000      -1.220577       -33.2136
  11   2.0000      -1.049923       -28.5698
  12   2.0000      -0.883099       -24.0303
  13   2.0000      -0.801650       -21.8140
  14   2.0000      -0.783642       -21.3240
  15   2.0000      -0.712928       -19.3998
  16   2.0000      -0.677236       -18.4285
  17   2.0000      -0.615086       -16.7373
  18   2.0000      -0.586962       -15.9720
  19   2.0000      -0.547438       -14.8965
  20   2.0000      -0.529120       -14.3981
  21   2.0000      -0.513257       -13.9664
  22   2.0000      -0.494551       -13.4574
  23   2.0000      -0.464585       -12.6420
  24   2.0000      -0.448890       -12.2149
  25   2.0000      -0.428157       -11.6507
  26   2.0000      -0.420139       -11.4326
  27   2.0000      -0.393879       -10.7180
  28   2.0000      -0.369926       -10.0662
  29   2.0000      -0.366869        -9.9830
  30   2.0000      -0.357204        -9.7200
  31   2.0000      -0.312423        -8.5015
  32   2.0000      -0.306838        -8.3495
  33   2.0000      -0.303853        -8.2683
  34   2.0000      -0.262711        -7.1487
  35   2.0000      -0.257552        -7.0083
  36   0.0000      -0.082548        -2.2462
  37   0.0000      -0.015333        -0.4172
  38   0.0000      -0.007994        -0.2175
  39   0.0000       0.090037         2.4500
  40   0.0000       0.119491         3.2515

MULLIKEN ATOMIC CHARGES
-----------------------
   0 C :   -0.141690
   1 C :   -0.071701
   2 C :   -0.112669
   3 C :   -0.074427
   4 C :    0.173663
   5 C :    0.126691
   6 N :    0.349594
   7 C :   -0.364315
   8 H :    0.113626
   9 H :    0.113781
  10 H :    0.121865
  11 H :    0.135156
  12 H :    0.132170
  13 H :    0.148312
  14 H :    0.117473
  15 O :   -0.382896
  16 O :   -0.384634
Sum of atomic charges:   -0.0000000

LOEWDIN ATOMIC CHARGES
----------------------
   0 C :   -0.070790
   1 C :   -0.050524
   2 C :   -0.073613
   3 C :   -0.048567
   4 C :   -0.008976
   5 C :    0.008221
   6 N :    0.266936
   7 C :   -0.192307
   8 H :    0.086193
   9 H :    0.086184
  10 H :    0.088443
  11 H :    0.096448
  12 H :    0.087031
  13 H :    0.094952
  14 H :    0.081356
  15 O :   -0.223963
  16 O :   -0.227025

  Mayer bond orders larger than 0.1
B(  0-C ,  1-C ) :   1.4344 B(  0-C ,  5-C ) :   1.4270 B(  0-C ,  8-H ) :   0.9341
B(  1-C ,  2-C ) :   1.4343 B(  1-C ,  9-H ) :   0.9399 B(  2-C ,  3-C ) :   1.4447
B(  2-C , 10-H ) :   0.9377 B(  3-C ,  4-C ) :   1.3827 B(  3-C , 11-H ) :   0.9298
B(  4-C ,  5-C ) :   1.3916 B(  4-C ,  6-N ) :   0.7612 B(  5-C ,  7-C ) :   1.0122
B(  6-N , 15-O ) :   1.5149 B(  6-N , 16-O ) :   1.5325 B(  7-C , 12-H ) :   0.9497
B(  7-C , 13-H ) :   0.9400 B(  7-C , 14-H ) :   0.9521 B( 15-O , 16-O ) :   0.2816

FINAL SINGLE POINT ENERGY      -475.801047798979

DIPOLE MOMENT
-------------
                                X             Y             Z
Electronic contribution:      6.51223      -0.92447       1.15293
Nuclear contribution   :     -8.19120       0.19090      -1.48075
                        -----------------------------------------
Total Dipole Moment    :     -1.67898      -0.73356      -0.32781
                        -----------------------------------------
Magnitude (a.u.)       :      1.86133
Magnitude (Debye)      :      4.73112

VIBRATIONAL FREQUENCIES
-----------------------

   0:         0.00 cm**-1
   1:         0.00 cm**-1
   2:         0.00 cm**-1
   3:         0.00 cm**-1
   4:         0.00 cm**-1
   5:         0.00 cm**-1
   6:        94.56 cm**-1
   7:       140.93 cm**-1
   8:       172.38 cm**-1
   9:       221.11 cm**-1
  10:       234.77 cm**-1
  11:       339.19 cm**-1
  12:       390.20 cm**-1
  13:       427.06 cm**-1
  14:       487.26 cm**-1
  15:       550.59 cm**-1
  16:       588.05 cm**-1
  17:       675.93 cm**-1
  18:       717.76 cm**-1
  19:       754.65 cm**-1
  20:       802.46 cm**-1
  21:       808.36 cm**-1
  22:       860.85 cm**-1
  23:       894.38 cm**-1
  24:       974.95 cm**-1
  25:      1007.98 cm**-1
  26:      1014.33 cm**-1
  27:      1071.79 cm**-1
  28:      1077.41 cm**-1
  29:      1119.02 cm**-1
  30:      1174.31 cm**-1
  31:      1191.76 cm**-1
  32:      1231.82 cm**-1
  33:      1309.12 cm**-1
  34:      1338.69 cm**-1
  35:      1395.33 cm**-1
  36:      1428.89 cm**-1
  37:      1464.73 cm**-1
  38:      1495.20 cm**-1
  39:      1502.75 cm**-1
  40:      1517.63 cm**-1
  41:      1571.98 cm**-1
  42:      1628.27 cm**-1
  43:      1642.64 cm**-1
  44:      3044.38 cm**-1
  45:      3111.06 cm**-1
  46:      3126.77 cm**-1
  47:      3167.09 cm**-1
  48:      3179.97 cm**-1
  49:      3188.49 cm**-1
  50:      3198.56 cm**-1

IR SPECTRUM
-----------

 Mode    freq (cm**-1)   T**2         TX         TY         TZ
-------------------------------------------------------------------
   6:        94.56    1.223725  (  0.992410   0.486051   0.051007)
   7:       140.93    2.309070  ( -0.291657   0.167703   1.481851)
   8:       172.38    0.376310  (  0.472076  -0.023551  -0.391023)
   9:       221.11    4.815000  ( -1.260541   1.721057  -0.513808)
  10:       234.77    0.900568  (  0.620532  -0.179966   0.695069)
  11:       339.19    2.552173  ( -1.211594  -1.009816  -0.253935)
  12:       390.20    1.164886  (  0.083255   1.065665   0.149373)
  13:       427.06    1.511292  (  0.622937  -1.001785  -0.345932)
  14:       487.26    6.610318  (  0.266645   0.575586   2.491570)
  15:       550.59    0.662453  ( -0.749685  -0.300724  -0.099953)
  16:       588.05    0.906534  ( -0.693302  -0.400702   0.515076)
  17:       675.93   16.711644  ( -3.591527  -1.920620  -0.351842)
  18:       717.76    5.124363  (  2.237034   0.093490   0.333622)
  19:       754.65   62.778420  ( -1.719651  -0.580006   7.712640)
  20:       802.46   21.625115  (  3.817643   0.653244  -2.573711)
  21:       808.36    9.745534  ( -0.209179  -1.367136  -2.798699)
  22:       860.85   23.731928  ( -4.034890  -2.455566  -1.192388)
  23:       894.38    4.894712  (  2.130038  -0.260696  -0.538227)
  24:       974.95    8.535545  ( -2.322815   0.556223   1.682465)
  25:      1007.98    0.720893  ( -0.843571  -0.058375  -0.076632)
  26:      1014.33    0.165538  (  0.176840   0.299548  -0.211037)
  27:      1071.79    5.134245  (  0.470996  -1.744824  -1.366747)
  28:      1077.41    2.622127  ( -1.108621  -0.579815   1.028057)
  29:      1119.02    5.427592  ( -1.199046   1.756181   0.951688)
  30:      1174.31    4.137962  (  1.657540  -1.146506  -0.275769)
  31:      1191.76    1.280688  (  1.041445  -0.247979   0.366860)
  32:      1231.82    4.368815  (  1.933909   0.603966   0.513845)
  33:      1309.12    1.297002  ( -0.169208  -0.938557   0.622480)
  34:      1338.69   13.058958  (  2.833087  -2.239684  -0.128016)
  35:      1395.33  325.118154  (-15.528416  -8.556709  -3.281642)
  36:      1428.89    0.997473  (  0.669823  -0.211113  -0.710100)
  37:      1464.73   15.480052  ( -3.644391   0.457165   1.410484)
  38:      1495.20   11.346427  (  3.091245  -1.332053  -0.127529)
  39:      1502.75    8.512188  ( -1.446668   0.628908  -2.454346)
  40:      1517.63   13.467790  ( -1.677317  -1.926250   2.635139)
  41:      1571.98  343.108573  ( -8.197711  10.148657  13.149558)
  42:      1628.27   10.932199  ( -3.124051  -0.327655   1.032060)
  43:      1642.64   19.797627  ( -0.015627   3.811807   2.295105)
  44:      3044.38   18.203647  (  1.062798  -4.044378   0.846826)
  45:      3111.06   17.687575  ( -4.055870   0.393572  -1.040476)
  46:      3126.77   11.892498  (  1.096063   0.729913  -3.187220)
  47:      3167.09    4.304194  (  0.663310  -1.961369   0.131322)
  48:      3179.97    7.022686  (  2.296370  -1.253401   0.422324)
  49:      3188.49    9.702351  (  2.897704   1.030109   0.494508)
  50:      3198.56    9.618844  ( -1.178134  -2.841828  -0.393521)

--------------------------
THERMOCHEMISTRY AT 298.15K
--------------------------

Temperature         ... 298.15 K
Pressure            ... 1.00 atm
Total Mass          ... 137.14 AMU

Throughout the following assumptions are being made:
  (1) The electronic state is orbitally nondegenerate
  (2) There are no thermally accessible electronically excited states
  (3) Hindered rotations indicated by low frequency modes are not
      treated as such but are treated as vibrations and this may
      cause some error
  (4) All equations used are the standard statistical mechanics
      equations for an ideal gas
  (5) All vibrations are strictly harmonic

freq.      94.56  E(vib)   ...       0.47
freq.     140.93  E(vib)   ...       0.41
freq.     172.38  E(vib)   ...       0.38
freq.     221.11  E(vib)   ...       0.33
freq.     234.77  E(vib)   ...       0.32
freq.     339.19  E(vib)   ...       0.23
freq.     390.20  E(vib)   ...       0.20
freq.     427.06  E(vib)   ...       0.18
freq.     487.26  E(vib)   ...       0.15
freq.     550.59  E(vib)   ...       0.12
freq.     588.05  E(vib)   ...       0.10
freq.     675.93  E(vib)   ...       0.08
freq.     717.76  E(vib)   ...       0.07
freq.     754.65  E(vib)   ...       0.06
freq.     802.46  E(vib)   ...       0.05
freq.     808.36  E(vib)   ...       0.05
freq.     860.85  E(vib)   ...       0.04
freq.     894.38  E(vib)   ...       0.03
freq.     974.95  E(vib)   ...       0.03
freq.    1007.98  E(vib)   ...       0.02
freq.    1014.33  E(vib)   ...       0.02
freq.    1071.79  E(vib)   ...       0.02
freq.    1077.41  E(vib)   ...       0.02
freq.    1119.02  E(vib)   ...       0.01
freq.    1174.31  E(vib)   ...       0.01
freq.    1191.76  E(vib)   ...       0.01
freq.    1231.82  E(vib)   ...       0.01
freq.    1309.12  E(vib)   ...       0.01
freq.    1338.69  E(vib)   ...       0.01
freq.    1395.33  E(vib)   ...       0.00
freq.    1428.89  E(vib)   ...       0.00
freq.    1464.73  E(vib)   ...       0.00
freq.    1495.20  E(vib)   ...       0.00
freq.    1502.75  E(vib)   ...       0.00
freq.    1517.63  E(vib)   ...       0.00
freq.    1571.98  E(vib)   ...       0.00
freq.    1628.27  E(vib)   ...       0.00
freq.    1642.64  E(vib)   ...       0.00
freq.    3044.38  E(vib)   ...       0.00
freq.    3111.06  E(vib)   ...       0.00
freq.    3126.77  E(vib)   ...       0.00
freq.    3167.09  E(vib)   ...       0.00
freq.    3179.97  E(vib)   ...       0.00
freq.    3188.49  E(vib)   ...       0.00
freq.    3198.56  E(vib)   ...       0.00

------------
INNER ENERGY
------------

The inner energy is: U= E(el) + E(ZPE) + E(vib) + E(rot) + E(trans)
    E(el)   - is the total energy from the electronic structure calculation
              = E(kin-el) + E(nuc-el) + E(el-el) + E(nuc-nuc)
    E(ZPE)  - the the zero temperature vibrational energy from the frequency calculation
    E(vib)  - the the finite temperature correction to E(ZPE) due to population
              of excited vibrational states
    E(rot)  - is the rotational thermal energy
    E(trans)- is the translational thermal energy

Summary of contributions to the inner energy U:
Electronic energy                ...   -475.80104780 Eh
Zero point energy                ...      0.13061971 Eh      81.96 kcal/mol
Thermal vibrational correction   ...      0.00550888 Eh       3.46 kcal/mol
Thermal rotational correction    ...      0.00141627 Eh       0.89 kcal/mol
Thermal translational correction ...      0.00141627 Eh       0.89 kcal/mol
-----------------------------------------------------------------------
Total thermal energy                   -475.66208667 Eh

Summary of corrections to the electronic energy:
(perhaps to be used in another calculation)
Total thermal correction                  0.00834142 Eh       5.23 kcal/mol
Non-thermal (ZPE) correction              0.13061971 Eh      81.96 kcal/mol
-----------------------------------------------------------------------
Total correction                          0.13896113 Eh      87.20 kcal/mol

--------
ENTHALPY
--------

The enthalpy is H = U + kB*T
                kB is Boltzmann's constant
Total free energy                 ...   -475.66208667 Eh
Thermal Enthalpy correction       ...      0.00094421 Eh       0.59 kcal/mol
-----------------------------------------------------------------------
Total Enthalpy                    ...   -475.66114246 Eh

Vibrational entropy computed according to the QRRHO of S. Grimme
Chem.Eur.J. 2012 18 9955

-------
ENTROPY
-------

The entropy contributions are T*S = T*(S(el)+S(vib)+S(rot)+S(trans)
     S(el)   - electronic entropy
     S(vib)  - vibrational entropy
     S(rot)  - rotational entropy
     S(trans)- translational entropy
The entropies will be listed as mutliplied by the temperature to get
units of energy

Electronic entropy                ...      0.00000000 Eh      0.00 kcal/mol
Vibrational entropy               ...      0.00915828 Eh      5.75 kcal/mol
Rotational entropy                ...      0.01289200 Eh      8.09 kcal/mol
Translational entropy             ...      0.01931853 Eh     12.12 kcal/mol
-----------------------------------------------------------------------
Final entropy term                ...      0.04136880 Eh     25.96 kcal/mol

CAUTION: The rotational entropy is not quite correctly treated here
         because it includes a symmetry number that is not yet correctly
         implemented in ORCA!
For a nonlinear molecule the correct rotational entropy is:
    S(rot) = R*(ln(qrot/sn)+1.5)
    R    = 8.31441 J/mol/K = 1.987191683e-3 kcal/mol/K
    qrot = 569646.0231375
    sn is the rotational symmetry number. We have assumed 3 here
       if it is different for your molecule then you should correct
       the printed rotational entropy by manually evaluating the equation
       as given above

For convenience we print out the resulting values for sn=1 - 12:
 sn= 1  qrot/sn=  569646.0231 T*S(rot)=     8.74 kcal/mol T*S(tot)=    26.61 kcal/mol
 sn= 2  qrot/sn=  284823.0116 T*S(rot)=     8.33 kcal/mol T*S(tot)=    26.20 kcal/mol
 sn= 3  qrot/sn=  189882.0077 T*S(rot)=     8.09 kcal/mol T*S(tot)=    25.96 kcal/mol
 sn= 4  qrot/sn=  142411.5058 T*S(rot)=     7.92 kcal/mol T*S(tot)=    25.79 kcal/mol
 sn= 5  qrot/sn=  113929.2046 T*S(rot)=     7.79 kcal/mol T*S(tot)=    25.66 kcal/mol
 sn= 6  qrot/sn=   94941.0039 T*S(rot)=     7.68 kcal/mol T*S(tot)=    25.55 kcal/mol
 sn= 7  qrot/sn=   81378.0033 T*S(rot)=     7.59 kcal/mol T*S(tot)=    25.46 kcal/mol
 sn= 8  qrot/sn=   71205.7529 T*S(rot)=     7.51 kcal/mol T*S(tot)=    25.38 kcal/mol
 sn= 9  qrot/sn=   63294.0026 T*S(rot)=     7.44 kcal/mol T*S(tot)=    25.31 kcal/mol
 sn=10  qrot/sn=   56964.6023 T*S(rot)=     7.38 kcal/mol T*S(tot)=    25.25 kcal/mol
 sn=11  qrot/sn=   51786.0021 T*S(rot)=     7.32 kcal/mol T*S(tot)=    25.19 kcal/mol
 sn=12  qrot/sn=   47470.5019 T*S(rot)=     7.27 kcal/mol T*S(tot)=    25.14 kcal/mol

-------------------
GIBBS FREE ENTHALPY
-------------------

                             ****ORCA TERMINATED NORMALLY****
TOTAL RUN TIME: 0 days 5 hours 27 minutes 12 seconds 395 msec
