                         Program Version 4.0.1 -  RELEASE  -
|  1> ! B3LYP 6-31G(d,p) Freq
|  2>
|  3> * xyzfile 0 1 etanal.xyz
|  4>
|  5>                          ****END OF INPUT****

CARTESIAN COORDINATES (ANGSTROEM)
---------------------------------
  C     -4.700350   -0.428460   -0.002920
  C     -3.698450    0.681690   -0.083480
  H     -5.706770   -0.004960   -0.037420
  H     -4.560580   -0.968730    0.936230
  H     -4.566250   -1.116170   -0.841510
  O     -2.862340    0.774300   -0.976080
  H     -3.752720    1.432100    0.723170

 Total Charge           Charge          ....    0
 Multiplicity           Mult            ....    1
 Number of Electrons    NEL             ....   24
 Basis Dimension        Dim             ....   62

ORBITAL ENERGIES
----------------

  NO   OCC          E(Eh)            E(eV)
   0   2.0000     -19.141693      -520.8720
   1   2.0000     -10.273156      -279.5468
   2   2.0000     -10.189200      -277.2622
   3   2.0000      -1.032696       -28.1011
   4   2.0000      -0.752929       -20.4882
   5   2.0000      -0.579895       -15.7797
   6   2.0000      -0.470798       -12.8111
   7   2.0000      -0.445410       -12.1202
   8   2.0000      -0.427031       -11.6201
   9   2.0000      -0.391501       -10.6533
  10   2.0000      -0.356261        -9.6944
  11   2.0000      -0.250647        -6.8205
  12   0.0000      -0.021780        -0.5927
  13   0.0000       0.110023         2.9939
  14   0.0000       0.136011         3.7010
  15   0.0000       0.154794         4.2122
  16   0.0000       0.158323         4.3082

MULLIKEN ATOMIC CHARGES
-----------------------
   0 C :   -0.371814
   1 C :    0.270970
   2 H :    0.129003
   3 H :    0.129967
   4 H :    0.140564
   5 O :   -0.367765
   6 H :    0.069074
Sum of atomic charges:   -0.0000000

LOEWDIN ATOMIC CHARGES
----------------------
   0 C :   -0.231239
   1 C :    0.115577
   2 H :    0.091678
   3 H :    0.092033
   4 H :    0.089510
   5 O :   -0.195520
   6 H :    0.037962

  Mayer bond orders larger than 0.1
B(  0-C ,  1-C ) :   0.9721 B(  0-C ,  2-H ) :   0.9441 B(  0-C ,  3-H ) :   0.9440
B(  0-C ,  4-H ) :   0.9568 B(  1-C ,  5-O ) :   2.0042 B(  1-C ,  6-H ) :   0.9021

FINAL SINGLE POINT ENERGY      -153.743432485826

DIPOLE MOMENT
-------------
                                X             Y             Z
Electronic contribution:      2.55850       1.63181      -1.39574
Nuclear contribution   :     -3.33361      -1.86851       2.07479
                        -----------------------------------------
Total Dipole Moment    :     -0.77512      -0.23670       0.67905
                        -----------------------------------------
Magnitude (a.u.)       :      1.05732
Magnitude (Debye)      :      2.68751

VIBRATIONAL FREQUENCIES
-----------------------

   0:         0.00 cm**-1
   1:         0.00 cm**-1
   2:         0.00 cm**-1
   3:         0.00 cm**-1
   4:         0.00 cm**-1
   5:         0.00 cm**-1
   6:        78.93 cm**-1
   7:       511.51 cm**-1
   8:       755.39 cm**-1
   9:       902.59 cm**-1
  10:      1130.58 cm**-1
  11:      1137.34 cm**-1
  12:      1375.38 cm**-1
  13:      1410.41 cm**-1
  14:      1456.94 cm**-1
  15:      1488.06 cm**-1
  16:      1759.20 cm**-1
  17:      2994.20 cm**-1
  18:      3063.95 cm**-1
  19:      3150.39 cm**-1
  20:      3157.52 cm**-1

IR SPECTRUM
-----------

 Mode    freq (cm**-1)   T**2         TX         TY         TZ
-------------------------------------------------------------------
   6:        78.93    0.336796  ( -0.375422   0.309019  -0.316799)
   7:       511.51   12.977463  (  1.959324   2.951469   0.653718)
   8:       755.39    0.714509  (  0.556761  -0.439894   0.459369)
   9:       902.59    4.524287  (  1.476370   1.516016  -0.215205)
  10:      1130.58    0.866079  ( -0.616344   0.475212  -0.510267)
  11:      1137.34   24.390008  ( -2.454769  -4.128273  -1.149555)
  12:      1375.38   16.772463  ( -3.036186  -2.481435   1.181742)
  13:      1410.41   14.745656  ( -2.034689  -3.171452  -0.739992)
  14:      1456.94   17.482374  ( -2.229421   0.833139   3.437723)
  15:      1488.06    9.029220  (  1.902979  -1.600486   1.687109)
  16:      1759.20  142.204874  ( -8.846461  -3.043857   7.394588)
  17:      2994.20  114.235427  ( -0.923095  -8.091066  -6.922281)
  18:      3063.95    1.421007  ( -0.866347  -0.220521   0.788556)
  19:      3150.39    7.043572  (  1.695278  -1.446074   1.441691)
  20:      3157.52   10.866075  ( -0.461765   1.996924   2.581694)

--------------------------
THERMOCHEMISTRY AT 298.15K
--------------------------

Temperature         ... 298.15 K
Pressure            ... 1.00 atm
Total Mass          ... 44.05 AMU

Throughout the following assumptions are being made:
  (1) The electronic state is orbitally nondegenerate
  (2) There are no thermally accessible electronically excited states
  (3) Hindered rotations indicated by low frequency modes are not
      treated as such but are treated as vibrations and this may
      cause some error
  (4) All equations used are the standard statistical mechanics
      equations for an ideal gas
  (5) All vibrations are strictly harmonic

freq.      78.93  E(vib)   ...       0.49
freq.     511.51  E(vib)   ...       0.14
freq.     755.39  E(vib)   ...       0.06
freq.     902.59  E(vib)   ...       0.03
freq.    1130.58  E(vib)   ...       0.01
freq.    1137.34  E(vib)   ...       0.01
freq.    1375.38  E(vib)   ...       0.01
freq.    1410.41  E(vib)   ...       0.00
freq.    1456.94  E(vib)   ...       0.00
freq.    1488.06  E(vib)   ...       0.00
freq.    1759.20  E(vib)   ...       0.00
freq.    2994.20  E(vib)   ...       0.00
freq.    3063.95  E(vib)   ...       0.00
freq.    3150.39  E(vib)   ...       0.00
freq.    3157.52  E(vib)   ...       0.00

------------
INNER ENERGY
------------

The inner energy is: U= E(el) + E(ZPE) + E(vib) + E(rot) + E(trans)
    E(el)   - is the total energy from the electronic structure calculation
              = E(kin-el) + E(nuc-el) + E(el-el) + E(nuc-nuc)
    E(ZPE)  - the the zero temperature vibrational energy from the frequency calculation
    E(vib)  - the the finite temperature correction to E(ZPE) due to population
              of excited vibrational states
    E(rot)  - is the rotational thermal energy
    E(trans)- is the translational thermal energy

Summary of contributions to the inner energy U:
Electronic energy                ...   -153.74343249 Eh
Zero point energy                ...      0.05552441 Eh      34.84 kcal/mol
Thermal vibrational correction   ...      0.00120898 Eh       0.76 kcal/mol
Thermal rotational correction    ...      0.00141627 Eh       0.89 kcal/mol
Thermal translational correction ...      0.00141627 Eh       0.89 kcal/mol
-----------------------------------------------------------------------
Total thermal energy                   -153.68386656 Eh

Summary of corrections to the electronic energy:
(perhaps to be used in another calculation)
Total thermal correction                  0.00404152 Eh       2.54 kcal/mol
Non-thermal (ZPE) correction              0.05552441 Eh      34.84 kcal/mol
-----------------------------------------------------------------------
Total correction                          0.05956593 Eh      37.38 kcal/mol

--------
ENTHALPY
--------

The enthalpy is H = U + kB*T
                kB is Boltzmann's constant
Total free energy                 ...   -153.68386656 Eh
Thermal Enthalpy correction       ...      0.00094421 Eh       0.59 kcal/mol
-----------------------------------------------------------------------
Total Enthalpy                    ...   -153.68292235 Eh

Vibrational entropy computed according to the QRRHO of S. Grimme
Chem.Eur.J. 2012 18 9955

-------
ENTROPY
-------

The entropy contributions are T*S = T*(S(el)+S(vib)+S(rot)+S(trans)
     S(el)   - electronic entropy
     S(vib)  - vibrational entropy
     S(rot)  - rotational entropy
     S(trans)- translational entropy
The entropies will be listed as mutliplied by the temperature to get
units of energy

Electronic entropy                ...      0.00000000 Eh      0.00 kcal/mol
Vibrational entropy               ...      0.00214469 Eh      1.35 kcal/mol
Rotational entropy                ...      0.00925450 Eh      5.81 kcal/mol
Translational entropy             ...      0.01771022 Eh     11.11 kcal/mol
-----------------------------------------------------------------------
Final entropy term                ...      0.02910940 Eh     18.27 kcal/mol

CAUTION: The rotational entropy is not quite correctly treated here
         because it includes a symmetry number that is not yet correctly
         implemented in ORCA!
For a nonlinear molecule the correct rotational entropy is:
    S(rot) = R*(ln(qrot/sn)+1.5)
    R    = 8.31441 J/mol/K = 1.987191683e-3 kcal/mol/K
    qrot = 12091.1076042
    sn is the rotational symmetry number. We have assumed 3 here
       if it is different for your molecule then you should correct
       the printed rotational entropy by manually evaluating the equation
       as given above

For convenience we print out the resulting values for sn=1 - 12:
 sn= 1  qrot/sn=   12091.1076 T*S(rot)=     6.46 kcal/mol T*S(tot)=    18.92 kcal/mol
 sn= 2  qrot/sn=    6045.5538 T*S(rot)=     6.05 kcal/mol T*S(tot)=    18.51 kcal/mol
 sn= 3  qrot/sn=    4030.3692 T*S(rot)=     5.81 kcal/mol T*S(tot)=    18.27 kcal/mol
 sn= 4  qrot/sn=    3022.7769 T*S(rot)=     5.64 kcal/mol T*S(tot)=    18.10 kcal/mol
 sn= 5  qrot/sn=    2418.2215 T*S(rot)=     5.50 kcal/mol T*S(tot)=    17.96 kcal/mol
 sn= 6  qrot/sn=    2015.1846 T*S(rot)=     5.40 kcal/mol T*S(tot)=    17.86 kcal/mol
 sn= 7  qrot/sn=    1727.3011 T*S(rot)=     5.31 kcal/mol T*S(tot)=    17.76 kcal/mol
 sn= 8  qrot/sn=    1511.3885 T*S(rot)=     5.23 kcal/mol T*S(tot)=    17.69 kcal/mol
 sn= 9  qrot/sn=    1343.4564 T*S(rot)=     5.16 kcal/mol T*S(tot)=    17.62 kcal/mol
 sn=10  qrot/sn=    1209.1108 T*S(rot)=     5.09 kcal/mol T*S(tot)=    17.55 kcal/mol
 sn=11  qrot/sn=    1099.1916 T*S(rot)=     5.04 kcal/mol T*S(tot)=    17.50 kcal/mol
 sn=12  qrot/sn=    1007.5923 T*S(rot)=     4.99 kcal/mol T*S(tot)=    17.45 kcal/mol

-------------------
GIBBS FREE ENTHALPY
-------------------

The Gibbs free enthalpy is G = H - T*S

Total enthalpy                    ...   -153.68292235 Eh
Total entropy correction          ...     -0.02910940 Eh    -18.27 kcal/mol
-----------------------------------------------------------------------
Final Gibbs free enthalpy         ...   -153.71203175 Eh

For completeness - the Gibbs free enthalpy minus the electronic energy
G-E(el)                           ...      0.03140074 Eh     19.70 kcal/mol

                             ****ORCA TERMINATED NORMALLY****
TOTAL RUN TIME: 0 days 0 hours 1 minutes 16 seconds 702 msec
