                         Program Version 4.0.1 -  RELEASE  -
|  1> ! B3LYP 6-31G(d,p) Freq
|  2>
|  3> * xyzfile 0 1 p-nitrotolueno.xyz
|  4>
|  5>                          ****END OF INPUT****

CARTESIAN COORDINATES (ANGSTROEM)
---------------------------------
  C     -4.451380    1.429700   -0.135670
  C     -4.343790    0.036930   -0.146640
  C     -3.080750   -0.557580   -0.037240
  C     -1.930730    0.231590    0.086890
  C     -2.049650    1.623480    0.096880
  C     -3.306580    2.231460   -0.027260
  H     -1.153600    2.232910    0.201150
  C     -3.433030    3.726860    0.018760
  H     -5.435920    1.887800   -0.213450
  H     -5.246510   -0.563500   -0.237370
  N     -2.961760   -2.020520   -0.047420
  H     -0.943580   -0.216440    0.179020
  H     -2.530140    4.208230   -0.371420
  H     -3.592250    4.056890    1.049880
  H     -4.273130    4.065600   -0.596620
  O     -4.003350   -2.683910   -0.155250
  O     -1.826520   -2.508290    0.052360

 Total Charge           Charge          ....    0
 Multiplicity           Mult            ....    1
 Number of Electrons    NEL             ....   72
 Basis Dimension        Dim             ....  175

ORBITAL ENERGIES
----------------

  NO   OCC          E(Eh)            E(eV)
   0   2.0000     -19.169081      -521.6172
   1   2.0000     -19.169001      -521.6150
   2   2.0000     -14.559094      -396.1731
   3   2.0000     -10.244219      -278.7594
   4   2.0000     -10.217832      -278.0413
   5   2.0000     -10.213047      -277.9111
   6   2.0000     -10.213010      -277.9101
   7   2.0000     -10.205164      -277.6966
   8   2.0000     -10.205092      -277.6947
   9   2.0000     -10.194551      -277.4078
  10   2.0000      -1.208317       -32.8800
  11   2.0000      -1.036810       -28.2130
  12   2.0000      -0.885323       -24.0909
  13   2.0000      -0.815703       -22.1964
  14   2.0000      -0.767236       -20.8776
  15   2.0000      -0.740133       -20.1400
  16   2.0000      -0.661946       -18.0125
  17   2.0000      -0.628864       -17.1123
  18   2.0000      -0.586820       -15.9682
  19   2.0000      -0.549287       -14.9468
  20   2.0000      -0.519508       -14.1365
  21   2.0000      -0.505633       -13.7590
  22   2.0000      -0.480543       -13.0762
  23   2.0000      -0.473722       -12.8906
  24   2.0000      -0.459834       -12.5127
  25   2.0000      -0.441497       -12.0138
  26   2.0000      -0.439903       -11.9704
  27   2.0000      -0.400376       -10.8948
  28   2.0000      -0.374206       -10.1827
  29   2.0000      -0.373572       -10.1654
  30   2.0000      -0.362114        -9.8536
  31   2.0000      -0.300196        -8.1687
  32   2.0000      -0.299153        -8.1404
  33   2.0000      -0.281810        -7.6684
  34   2.0000      -0.272036        -7.4025
  35   2.0000      -0.267260        -7.2725
  36   0.0000      -0.083560        -2.2738
  37   0.0000      -0.023673        -0.6442
  38   0.0000       0.005863         0.1595
  39   0.0000       0.079044         2.1509
  40   0.0000       0.109508         2.9799

MULLIKEN ATOMIC CHARGES
-----------------------
   0 C :   -0.123213
   1 C :   -0.087713
   2 C :    0.217754
   3 C :   -0.087353
   4 C :   -0.121984
   5 C :    0.125890
   6 H :    0.098648
   7 C :   -0.369526
   8 H :    0.097571
   9 H :    0.134318
  10 N :    0.372477
  11 H :    0.133308
  12 H :    0.118586
  13 H :    0.135432
  14 H :    0.119966
  15 O :   -0.381398
  16 O :   -0.382765
Sum of atomic charges:    0.0000000

LOEWDIN ATOMIC CHARGES
----------------------
   0 C :   -0.072863
   1 C :   -0.040344
   2 C :   -0.014901
   3 C :   -0.040457
   4 C :   -0.072820
   5 C :    0.012191
   6 H :    0.079883
   7 C :   -0.191141
   8 H :    0.079598
   9 H :    0.096257
  10 N :    0.263471
  11 H :    0.096090
  12 H :    0.080695
  13 H :    0.089423
  14 H :    0.081419
  15 O :   -0.223203
  16 O :   -0.223297

  Mayer bond orders larger than 0.1
B(  0-C ,  1-C ) :   1.4283 B(  0-C ,  5-C ) :   1.4202 B(  0-C ,  8-H ) :   0.9391
B(  1-C ,  2-C ) :   1.3880 B(  1-C ,  9-H ) :   0.9229 B(  2-C ,  3-C ) :   1.3926
B(  2-C , 10-N ) :   0.8183 B(  3-C ,  4-C ) :   1.4264 B(  3-C , 11-H ) :   0.9228
B(  4-C ,  5-C ) :   1.4207 B(  4-C ,  6-H ) :   0.9386 B(  5-C ,  7-C ) :   0.9986
B(  7-C , 12-H ) :   0.9587 B(  7-C , 13-H ) :   0.9460 B(  7-C , 14-H ) :   0.9582
B( 10-N , 15-O ) :   1.5280 B( 10-N , 16-O ) :   1.5247 B( 15-O , 16-O ) :   0.2698

FINAL SINGLE POINT ENERGY      -475.802522745454

DIPOLE MOMENT
-------------
                                X             Y             Z
Electronic contribution:      0.99312     -12.09388      -0.15982
Nuclear contribution   :     -1.16636      14.17224       0.20283
                        -----------------------------------------
Total Dipole Moment    :     -0.17325       2.07836       0.04301
                        -----------------------------------------
Magnitude (a.u.)       :      2.08601
Magnitude (Debye)      :      5.30222

VIBRATIONAL FREQUENCIES
-----------------------

   0:         0.00 cm**-1
   1:         0.00 cm**-1
   2:         0.00 cm**-1
   3:         0.00 cm**-1
   4:         0.00 cm**-1
   5:         0.00 cm**-1
   6:        88.84 cm**-1
   7:       105.26 cm**-1
   8:       107.00 cm**-1
   9:       223.58 cm**-1
  10:       290.17 cm**-1
  11:       359.16 cm**-1
  12:       360.39 cm**-1
  13:       429.14 cm**-1
  14:       493.39 cm**-1
  15:       532.74 cm**-1
  16:       626.84 cm**-1
  17:       646.67 cm**-1
  18:       701.19 cm**-1
  19:       759.45 cm**-1
  20:       802.29 cm**-1
  21:       862.07 cm**-1
  22:       863.90 cm**-1
  23:       866.43 cm**-1
  24:       996.07 cm**-1
  25:      1001.96 cm**-1
  26:      1017.26 cm**-1
  27:      1027.80 cm**-1
  28:      1070.96 cm**-1
  29:      1132.16 cm**-1
  30:      1142.22 cm**-1
  31:      1208.00 cm**-1
  32:      1247.71 cm**-1
  33:      1329.64 cm**-1
  34:      1354.49 cm**-1
  35:      1367.72 cm**-1
  36:      1421.83 cm**-1
  37:      1436.31 cm**-1
  38:      1493.33 cm**-1
  39:      1507.88 cm**-1
  40:      1535.42 cm**-1
  41:      1578.32 cm**-1
  42:      1643.09 cm**-1
  43:      1644.27 cm**-1
  44:      3043.82 cm**-1
  45:      3116.58 cm**-1
  46:      3121.57 cm**-1
  47:      3171.35 cm**-1
  48:      3172.19 cm**-1
  49:      3197.44 cm**-1
  50:      3197.95 cm**-1

IR SPECTRUM
-----------

 Mode    freq (cm**-1)   T**2         TX         TY         TZ
-------------------------------------------------------------------
   6:        88.84    0.255499  ( -0.501086  -0.039403  -0.053476)
   7:       105.26    0.478702  (  0.013361  -0.071149  -0.688085)
   8:       107.00    0.038091  (  0.025604  -0.016494  -0.192778)
   9:       223.58    1.132150  ( -1.054714  -0.071914  -0.120653)
  10:       290.17    4.495576  ( -0.204717  -0.142115   2.105581)
  11:       359.16    0.235764  ( -0.476204  -0.077276  -0.054977)
  12:       360.39    1.067192  (  0.120137  -1.024768  -0.051084)
  13:       429.14    0.006982  (  0.081523  -0.018328  -0.000009)
  14:       493.39    3.438108  (  0.212714  -0.191137  -1.832028)
  15:       532.74    1.275554  (  1.120310   0.079863   0.118670)
  16:       626.84    4.701249  ( -0.169949   2.159860  -0.085856)
  17:       646.67    0.416763  (  0.639200   0.067169   0.060617)
  18:       701.19    2.678124  (  0.163034  -0.089179  -1.625913)
  19:       759.45   29.687585  ( -0.546577  -0.007391   5.421142)
  20:       802.29   12.538827  ( -0.266133   3.529787  -0.092743)
  21:       862.07   20.859667  (  0.299147   1.910648  -4.137584)
  22:       863.90    0.144967  (  0.037560   0.277991  -0.257443)
  23:       866.43   21.773764  ( -0.509303   4.437033   1.351706)
  24:       996.07    0.004049  ( -0.005294   0.062759  -0.009075)
  25:      1001.96    2.308019  (  0.179330  -0.311435  -1.476099)
  26:      1017.26    0.113641  (  0.296075   0.155743   0.041528)
  27:      1027.80    2.784673  ( -0.065897   1.645260  -0.271017)
  28:      1070.96   17.338932  ( -0.506844   3.385588   2.370619)
  29:      1132.16   28.734128  ( -0.425910   5.343315  -0.041440)
  30:      1142.22    5.720441  ( -2.375400  -0.155004  -0.232144)
  31:      1208.00    9.497372  ( -0.247631   3.071692   0.027531)
  32:      1247.71    2.573726  ( -0.161067   1.573676   0.267075)
  33:      1329.64    0.260278  ( -0.506340   0.039004  -0.048750)
  34:      1354.49   10.742836  (  3.261385   0.082658   0.315235)
  35:      1367.72  357.712650  (  1.524032 -18.850943  -0.178632)
  36:      1421.83    1.612753  ( -0.163159   1.212597   0.340207)
  37:      1436.31    0.008371  ( -0.085042   0.026946   0.020305)
  38:      1493.33    1.984808  ( -1.383197  -0.107537  -0.244971)
  39:      1507.88    5.573968  ( -0.270597  -0.056274   2.344692)
  40:      1535.42    7.435885  (  0.256761  -2.711725  -0.128470)
  41:      1578.32  174.913347  ( 13.121800   1.083075   1.248464)
  42:      1643.09   40.066761  ( -0.059468   6.328937   0.088202)
  43:      1644.27   30.917650  (  5.535580  -0.092882   0.516120)
  44:      3043.82   17.884158  ( -0.295650   4.216346  -0.138482)
  45:      3116.58   13.206331  ( -3.575664  -0.328622  -0.559434)
  46:      3121.57   13.033003  (  0.464801   1.030535  -3.428551)
  47:      3171.35   10.936704  (  3.235002  -0.615876   0.303581)
  48:      3172.19    6.679778  ( -0.993304  -2.384837  -0.075348)
  49:      3197.44    0.098144  (  0.245261   0.194886   0.003193)
  50:      3197.95    2.010913  ( -0.129738   1.412038  -0.015164)

--------------------------
THERMOCHEMISTRY AT 298.15K
--------------------------

Temperature         ... 298.15 K
Pressure            ... 1.00 atm
Total Mass          ... 137.14 AMU

Throughout the following assumptions are being made:
  (1) The electronic state is orbitally nondegenerate
  (2) There are no thermally accessible electronically excited states
  (3) Hindered rotations indicated by low frequency modes are not
      treated as such but are treated as vibrations and this may
      cause some error
  (4) All equations used are the standard statistical mechanics
      equations for an ideal gas
  (5) All vibrations are strictly harmonic

freq.      88.84  E(vib)   ...       0.47
freq.     105.26  E(vib)   ...       0.45
freq.     107.00  E(vib)   ...       0.45
freq.     223.58  E(vib)   ...       0.33
freq.     290.17  E(vib)   ...       0.27
freq.     359.16  E(vib)   ...       0.22
freq.     360.39  E(vib)   ...       0.22
freq.     429.14  E(vib)   ...       0.18
freq.     493.39  E(vib)   ...       0.14
freq.     532.74  E(vib)   ...       0.13
freq.     626.84  E(vib)   ...       0.09
freq.     646.67  E(vib)   ...       0.09
freq.     701.19  E(vib)   ...       0.07
freq.     759.45  E(vib)   ...       0.06
freq.     802.29  E(vib)   ...       0.05
freq.     862.07  E(vib)   ...       0.04
freq.     863.90  E(vib)   ...       0.04
freq.     866.43  E(vib)   ...       0.04
freq.     996.07  E(vib)   ...       0.02
freq.    1001.96  E(vib)   ...       0.02
freq.    1017.26  E(vib)   ...       0.02
freq.    1027.80  E(vib)   ...       0.02
freq.    1070.96  E(vib)   ...       0.02
freq.    1132.16  E(vib)   ...       0.01
freq.    1142.22  E(vib)   ...       0.01
freq.    1208.00  E(vib)   ...       0.01
freq.    1247.71  E(vib)   ...       0.01
freq.    1329.64  E(vib)   ...       0.01
freq.    1354.49  E(vib)   ...       0.01
freq.    1367.72  E(vib)   ...       0.01
freq.    1421.83  E(vib)   ...       0.00
freq.    1436.31  E(vib)   ...       0.00
freq.    1493.33  E(vib)   ...       0.00
freq.    1507.88  E(vib)   ...       0.00
freq.    1535.42  E(vib)   ...       0.00
freq.    1578.32  E(vib)   ...       0.00
freq.    1643.09  E(vib)   ...       0.00
freq.    1644.27  E(vib)   ...       0.00
freq.    3043.82  E(vib)   ...       0.00
freq.    3116.58  E(vib)   ...       0.00
freq.    3121.57  E(vib)   ...       0.00
freq.    3171.35  E(vib)   ...       0.00
freq.    3172.19  E(vib)   ...       0.00
freq.    3197.44  E(vib)   ...       0.00
freq.    3197.95  E(vib)   ...       0.00

------------
INNER ENERGY
------------

The inner energy is: U= E(el) + E(ZPE) + E(vib) + E(rot) + E(trans)
    E(el)   - is the total energy from the electronic structure calculation
              = E(kin-el) + E(nuc-el) + E(el-el) + E(nuc-nuc)
    E(ZPE)  - the the zero temperature vibrational energy from the frequency calculation
    E(vib)  - the the finite temperature correction to E(ZPE) due to population
              of excited vibrational states
    E(rot)  - is the rotational thermal energy
    E(trans)- is the translational thermal energy

Summary of contributions to the inner energy U:
Electronic energy                ...   -475.80252275 Eh
Zero point energy                ...      0.13052953 Eh      81.91 kcal/mol
Thermal vibrational correction   ...      0.00562721 Eh       3.53 kcal/mol
Thermal rotational correction    ...      0.00141627 Eh       0.89 kcal/mol
Thermal translational correction ...      0.00141627 Eh       0.89 kcal/mol
-----------------------------------------------------------------------
Total thermal energy                   -475.66353345 Eh

Summary of corrections to the electronic energy:
(perhaps to be used in another calculation)
Total thermal correction                  0.00845976 Eh       5.31 kcal/mol
Non-thermal (ZPE) correction              0.13052953 Eh      81.91 kcal/mol
-----------------------------------------------------------------------
Total correction                          0.13898929 Eh      87.22 kcal/mol

--------
ENTHALPY
--------

The enthalpy is H = U + kB*T
                kB is Boltzmann's constant
Total free energy                 ...   -475.66353345 Eh
Thermal Enthalpy correction       ...      0.00094421 Eh       0.59 kcal/mol
-----------------------------------------------------------------------
Total Enthalpy                    ...   -475.66258925 Eh

Vibrational entropy computed according to the QRRHO of S. Grimme
Chem.Eur.J. 2012 18 9955

-------
ENTROPY
-------

The entropy contributions are T*S = T*(S(el)+S(vib)+S(rot)+S(trans)
     S(el)   - electronic entropy
     S(vib)  - vibrational entropy
     S(rot)  - rotational entropy
     S(trans)- translational entropy
The entropies will be listed as mutliplied by the temperature to get
units of energy

Electronic entropy                ...      0.00000000 Eh      0.00 kcal/mol
Vibrational entropy               ...      0.00950883 Eh      5.97 kcal/mol
Rotational entropy                ...      0.01294138 Eh      8.12 kcal/mol
Translational entropy             ...      0.01931853 Eh     12.12 kcal/mol
-----------------------------------------------------------------------
Final entropy term                ...      0.04176873 Eh     26.21 kcal/mol

CAUTION: The rotational entropy is not quite correctly treated here
         because it includes a symmetry number that is not yet correctly
         implemented in ORCA!
For a nonlinear molecule the correct rotational entropy is:
    S(rot) = R*(ln(qrot/sn)+1.5)
    R    = 8.31441 J/mol/K = 1.987191683e-3 kcal/mol/K
    qrot = 600232.2980204
    sn is the rotational symmetry number. We have assumed 3 here
       if it is different for your molecule then you should correct
       the printed rotational entropy by manually evaluating the equation
       as given above

For convenience we print out the resulting values for sn=1 - 12:
 sn= 1  qrot/sn=  600232.2980 T*S(rot)=     8.77 kcal/mol T*S(tot)=    26.86 kcal/mol
 sn= 2  qrot/sn=  300116.1490 T*S(rot)=     8.36 kcal/mol T*S(tot)=    26.45 kcal/mol
 sn= 3  qrot/sn=  200077.4327 T*S(rot)=     8.12 kcal/mol T*S(tot)=    26.21 kcal/mol
 sn= 4  qrot/sn=  150058.0745 T*S(rot)=     7.95 kcal/mol T*S(tot)=    26.04 kcal/mol
 sn= 5  qrot/sn=  120046.4596 T*S(rot)=     7.82 kcal/mol T*S(tot)=    25.91 kcal/mol
 sn= 6  qrot/sn=  100038.7163 T*S(rot)=     7.71 kcal/mol T*S(tot)=    25.80 kcal/mol
 sn= 7  qrot/sn=   85747.4711 T*S(rot)=     7.62 kcal/mol T*S(tot)=    25.71 kcal/mol
 sn= 8  qrot/sn=   75029.0373 T*S(rot)=     7.54 kcal/mol T*S(tot)=    25.63 kcal/mol
 sn= 9  qrot/sn=   66692.4776 T*S(rot)=     7.47 kcal/mol T*S(tot)=    25.56 kcal/mol
 sn=10  qrot/sn=   60023.2298 T*S(rot)=     7.41 kcal/mol T*S(tot)=    25.50 kcal/mol
 sn=11  qrot/sn=   54566.5725 T*S(rot)=     7.35 kcal/mol T*S(tot)=    25.44 kcal/mol
 sn=12  qrot/sn=   50019.3582 T*S(rot)=     7.30 kcal/mol T*S(tot)=    25.39 kcal/mol

-------------------
GIBBS FREE ENTHALPY
-------------------

                             ****ORCA TERMINATED NORMALLY****
TOTAL RUN TIME: 0 days 1 hours 21 minutes 6 seconds 844 msec
