                         Program Version 4.0.1 -  RELEASE  -
|  1> ! B3LYP 6-31G(d,p) Freq
|  2>
|  3> * xyzfile 0 1 tolueno.xyz
|  4>
|  5>                          ****END OF INPUT****

CARTESIAN COORDINATES (ANGSTROEM)
---------------------------------
  C     -4.479960    1.449560    0.000000
  C     -4.396580    0.056250   -0.000000
  C     -3.150720   -0.568040   -0.000000
  C     -1.988020    0.200430   -0.000000
  C     -2.069960    1.594170    0.000000
  C     -3.317010    2.230410    0.000000
  H     -1.153090    2.178870    0.000000
  C     -3.420600    3.726630    0.000000
  H     -5.458270    1.924780    0.000000
  H     -5.304040   -0.541610   -0.000000
  H     -3.085800   -1.652720   -0.000000
  H     -1.015960   -0.285530   -0.000000
  H     -2.432310    4.198030   -0.000000
  H     -3.955060    4.067550    0.892510
  H     -3.955060    4.067550   -0.892510

 Total Charge           Charge          ....    0
 Multiplicity           Mult            ....    1
 Number of Electrons    NEL             ....   50
 Basis Dimension        Dim             ....  138

ORBITAL ENERGIES
----------------

  NO   OCC          E(Eh)            E(eV)
   0   2.0000     -10.183105      -277.0964
   1   2.0000     -10.175914      -276.9007
   2   2.0000     -10.175485      -276.8890
   3   2.0000     -10.173511      -276.8353
   4   2.0000     -10.173417      -276.8327
   5   2.0000     -10.173182      -276.8263
   6   2.0000     -10.171781      -276.7882
   7   2.0000      -0.844731       -22.9863
   8   2.0000      -0.762661       -20.7531
   9   2.0000      -0.733500       -19.9596
  10   2.0000      -0.675358       -18.3774
  11   2.0000      -0.594486       -16.1768
  12   2.0000      -0.572549       -15.5799
  13   2.0000      -0.499880       -13.6024
  14   2.0000      -0.448632       -12.2079
  15   2.0000      -0.445329       -12.1180
  16   2.0000      -0.416234       -11.3263
  17   2.0000      -0.410072       -11.1586
  18   2.0000      -0.396708       -10.7950
  19   2.0000      -0.374891       -10.2013
  20   2.0000      -0.344077        -9.3628
  21   2.0000      -0.330689        -8.9985
  22   2.0000      -0.329629        -8.9697
  23   2.0000      -0.240633        -6.5480
  24   2.0000      -0.231372        -6.2960
  25   0.0000       0.006384         0.1737
  26   0.0000       0.011920         0.3244
  27   0.0000       0.099597         2.7102
  28   0.0000       0.125437         3.4133
  29   0.0000       0.140463         3.8222

MULLIKEN ATOMIC CHARGES
-----------------------
   0 C :   -0.114286
   1 C :   -0.080792
   2 C :   -0.093917
   3 C :   -0.081440
   4 C :   -0.116469
   5 C :    0.114537
   6 H :    0.076914
   7 C :   -0.368722
   8 H :    0.076166
   9 H :    0.081357
  10 H :    0.084734
  11 H :    0.079395
  12 H :    0.104868
  13 H :    0.118827
  14 H :    0.118827
Sum of atomic charges:   -0.0000000

LOEWDIN ATOMIC CHARGES
----------------------
   0 C :   -0.079060
   1 C :   -0.069548
   2 C :   -0.081781
   3 C :   -0.070110
   4 C :   -0.081432
   5 C :   -0.012231
   6 H :    0.069470
   7 C :   -0.193165
   8 H :    0.069564
   9 H :    0.071543
  10 H :    0.071769
  11 H :    0.071056
  12 H :    0.073724
  13 H :    0.080101
  14 H :    0.080101

  Mayer bond orders larger than 0.1
B(  0-C ,  1-C ) :   1.4471 B(  0-C ,  5-C ) :   1.4280 B(  0-C ,  8-H ) :   0.9429
B(  1-C ,  2-C ) :   1.4439 B(  1-C ,  9-H ) :   0.9431 B(  2-C ,  3-C ) :   1.4581
B(  2-C , 10-H ) :   0.9436 B(  3-C ,  4-C ) :   1.4358 B(  3-C , 11-H ) :   0.9432
B(  4-C ,  5-C ) :   1.4499 B(  4-C ,  6-H ) :   0.9389 B(  5-C ,  7-C ) :   0.9943
B(  7-C , 12-H ) :   0.9631 B(  7-C , 13-H ) :   0.9546 B(  7-C , 14-H ) :   0.9546

FINAL SINGLE POINT ENERGY      -271.388873014218

DIPOLE MOMENT
-------------
                                X             Y             Z
Electronic contribution:      0.21157      -3.31485       0.00000
Nuclear contribution   :     -0.23656       3.44668       0.00000
                        -----------------------------------------
Total Dipole Moment    :     -0.02499       0.13183       0.00000
                        -----------------------------------------
Magnitude (a.u.)       :      0.13418
Magnitude (Debye)      :      0.34105

VIBRATIONAL FREQUENCIES
-----------------------

   0:         0.00 cm**-1
   1:         0.00 cm**-1
   2:         0.00 cm**-1
   3:         0.00 cm**-1
   4:         0.00 cm**-1
   5:         0.00 cm**-1
   6:        42.18 cm**-1
   7:       207.97 cm**-1
   8:       337.79 cm**-1
   9:       415.84 cm**-1
  10:       476.15 cm**-1
  11:       530.72 cm**-1
  12:       636.05 cm**-1
  13:       710.36 cm**-1
  14:       744.87 cm**-1
  15:       808.90 cm**-1
  16:       857.46 cm**-1
  17:       908.26 cm**-1
  18:       966.57 cm**-1
  19:       994.05 cm**-1
  20:      1005.25 cm**-1
  21:      1018.63 cm**-1
  22:      1058.19 cm**-1
  23:      1073.05 cm**-1
  24:      1117.40 cm**-1
  25:      1188.49 cm**-1
  26:      1205.58 cm**-1
  27:      1252.43 cm**-1
  28:      1347.01 cm**-1
  29:      1361.69 cm**-1
  30:      1420.06 cm**-1
  31:      1478.73 cm**-1
  32:      1502.31 cm**-1
  33:      1512.32 cm**-1
  34:      1544.54 cm**-1
  35:      1648.74 cm**-1
  36:      1664.78 cm**-1
  37:      3040.74 cm**-1
  38:      3114.08 cm**-1
  39:      3115.42 cm**-1
  40:      3169.36 cm**-1
  41:      3172.35 cm**-1
  42:      3182.53 cm**-1
  43:      3191.38 cm**-1
  44:      3202.63 cm**-1

IR SPECTRUM
-----------

 Mode    freq (cm**-1)   T**2         TX         TY         TZ
-------------------------------------------------------------------
   6:        42.18    0.430339  (  0.000000  -0.000000   0.656003)
   7:       207.97    1.282841  (  0.000000   0.000000  -1.132626)
   8:       337.79    0.366850  ( -0.582944   0.164398   0.000000)
   9:       415.84    0.004260  (  0.000000  -0.000000   0.065271)
  10:       476.15    4.753147  (  0.000000   0.000000   2.180171)
  11:       530.72    0.497609  (  0.043004   0.704102  -0.000000)
  12:       636.05    0.096320  (  0.308553   0.033394  -0.000000)
  13:       710.36   10.617243  ( -0.000000  -0.000000   3.258411)
  14:       744.87   36.999203  (  0.000000   0.000000   6.082697)
  15:       808.90    0.302536  ( -0.155501   0.527594  -0.000000)
  16:       857.46    0.002819  ( -0.000000   0.000000   0.053092)
  17:       908.26    0.330833  ( -0.000000  -0.000000   0.575181)
  18:       966.57    0.002256  (  0.000000  -0.000000  -0.047501)
  19:       994.05    0.045100  ( -0.000000  -0.000000   0.212367)
  20:      1005.25    1.498023  (  0.159953  -1.213441  -0.000000)
  21:      1018.63    0.605443  ( -0.020043   0.777844   0.000000)
  22:      1058.19    1.930988  ( -0.084493   1.387029  -0.000000)
  23:      1073.05    3.718269  (  0.000000  -0.000000  -1.928281)
  24:      1117.40    4.804569  ( -2.171117   0.301364   0.000000)
  25:      1188.49    0.068575  (  0.249236   0.080349  -0.000000)
  26:      1205.58    0.255186  ( -0.013986   0.504965  -0.000000)
  27:      1252.43    0.751365  (  0.229161  -0.835973   0.000000)
  28:      1347.01    0.550671  ( -0.226542  -0.706647   0.000000)
  29:      1361.69    0.036354  ( -0.096815  -0.164259  -0.000000)
  30:      1420.06    0.140889  ( -0.280017   0.249959  -0.000000)
  31:      1478.73    0.016725  (  0.129164  -0.006469   0.000000)
  32:      1502.31    4.528687  ( -0.000000   0.000000  -2.128071)
  33:      1512.32   10.550960  (  3.202073   0.545609   0.000000)
  34:      1544.54   12.535529  ( -0.142905   3.537670  -0.000000)
  35:      1648.74    0.483722  (  0.695501   0.000106   0.000000)
  36:      1664.78    7.005980  ( -0.196652   2.639566   0.000000)
  37:      3040.74   28.764585  (  0.393140  -5.348834  -0.000000)
  38:      3114.08   19.917844  (  0.000000   0.000000   4.462941)
  39:      3115.42   17.078407  (  4.061902   0.761156  -0.000000)
  40:      3169.36    7.029919  (  0.738714  -2.546413  -0.000000)
  41:      3172.35    3.391215  ( -1.788593  -0.438349  -0.000000)
  42:      3182.53   13.829113  ( -0.211497   3.712732   0.000000)
  43:      3191.38   45.624404  (  6.732904   0.540753   0.000000)
  44:      3202.63   16.322186  (  0.134681  -4.037827   0.000000)

--------------------------
THERMOCHEMISTRY AT 298.15K
--------------------------

Temperature         ... 298.15 K
Pressure            ... 1.00 atm
Total Mass          ... 92.14 AMU

Throughout the following assumptions are being made:
  (1) The electronic state is orbitally nondegenerate
  (2) There are no thermally accessible electronically excited states
  (3) Hindered rotations indicated by low frequency modes are not
      treated as such but are treated as vibrations and this may
      cause some error
  (4) All equations used are the standard statistical mechanics
      equations for an ideal gas
  (5) All vibrations are strictly harmonic

freq.      42.18  E(vib)   ...       0.53
freq.     207.97  E(vib)   ...       0.34
freq.     337.79  E(vib)   ...       0.24
freq.     415.84  E(vib)   ...       0.18
freq.     476.15  E(vib)   ...       0.15
freq.     530.72  E(vib)   ...       0.13
freq.     636.05  E(vib)   ...       0.09
freq.     710.36  E(vib)   ...       0.07
freq.     744.87  E(vib)   ...       0.06
freq.     808.90  E(vib)   ...       0.05
freq.     857.46  E(vib)   ...       0.04
freq.     908.26  E(vib)   ...       0.03
freq.     966.57  E(vib)   ...       0.03
freq.     994.05  E(vib)   ...       0.02
freq.    1005.25  E(vib)   ...       0.02
freq.    1018.63  E(vib)   ...       0.02
freq.    1058.19  E(vib)   ...       0.02
freq.    1073.05  E(vib)   ...       0.02
freq.    1117.40  E(vib)   ...       0.01
freq.    1188.49  E(vib)   ...       0.01
freq.    1205.58  E(vib)   ...       0.01
freq.    1252.43  E(vib)   ...       0.01
freq.    1347.01  E(vib)   ...       0.01
freq.    1361.69  E(vib)   ...       0.01
freq.    1420.06  E(vib)   ...       0.00
freq.    1478.73  E(vib)   ...       0.00
freq.    1502.31  E(vib)   ...       0.00
freq.    1512.32  E(vib)   ...       0.00
freq.    1544.54  E(vib)   ...       0.00
freq.    1648.74  E(vib)   ...       0.00
freq.    1664.78  E(vib)   ...       0.00
freq.    3040.74  E(vib)   ...       0.00
freq.    3114.08  E(vib)   ...       0.00
freq.    3115.42  E(vib)   ...       0.00
freq.    3169.36  E(vib)   ...       0.00
freq.    3172.35  E(vib)   ...       0.00
freq.    3182.53  E(vib)   ...       0.00
freq.    3191.38  E(vib)   ...       0.00
freq.    3202.63  E(vib)   ...       0.00

------------
INNER ENERGY
------------

The inner energy is: U= E(el) + E(ZPE) + E(vib) + E(rot) + E(trans)
    E(el)   - is the total energy from the electronic structure calculation
              = E(kin-el) + E(nuc-el) + E(el-el) + E(nuc-nuc)
    E(ZPE)  - the the zero temperature vibrational energy from the frequency calculation
    E(vib)  - the the finite temperature correction to E(ZPE) due to population
              of excited vibrational states
    E(rot)  - is the rotational thermal energy
    E(trans)- is the translational thermal energy

Summary of contributions to the inner energy U:
Electronic energy                ...   -271.38887301 Eh
Zero point energy                ...      0.12808966 Eh      80.38 kcal/mol
Thermal vibrational correction   ...      0.00337781 Eh       2.12 kcal/mol
Thermal rotational correction    ...      0.00141627 Eh       0.89 kcal/mol
Thermal translational correction ...      0.00141627 Eh       0.89 kcal/mol
-----------------------------------------------------------------------
Total thermal energy                   -271.25457300 Eh

Summary of corrections to the electronic energy:
(perhaps to be used in another calculation)
Total thermal correction                  0.00621035 Eh       3.90 kcal/mol
Non-thermal (ZPE) correction              0.12808966 Eh      80.38 kcal/mol
-----------------------------------------------------------------------
Total correction                          0.13430001 Eh      84.27 kcal/mol

--------
ENTHALPY
--------

The enthalpy is H = U + kB*T
                kB is Boltzmann's constant
Total free energy                 ...   -271.25457300 Eh
Thermal Enthalpy correction       ...      0.00094421 Eh       0.59 kcal/mol
-----------------------------------------------------------------------
Total Enthalpy                    ...   -271.25362879 Eh

Vibrational entropy computed according to the QRRHO of S. Grimme
Chem.Eur.J. 2012 18 9955

-------
ENTROPY
-------

The entropy contributions are T*S = T*(S(el)+S(vib)+S(rot)+S(trans)
     S(el)   - electronic entropy
     S(vib)  - vibrational entropy
     S(rot)  - rotational entropy
     S(trans)- translational entropy
The entropies will be listed as mutliplied by the temperature to get
units of energy

Electronic entropy                ...      0.00000000 Eh      0.00 kcal/mol
Vibrational entropy               ...      0.00547656 Eh      3.44 kcal/mol
Rotational entropy                ...      0.01177949 Eh      7.39 kcal/mol
Translational entropy             ...      0.01875532 Eh     11.77 kcal/mol
-----------------------------------------------------------------------
Final entropy term                ...      0.03601136 Eh     22.60 kcal/mol

CAUTION: The rotational entropy is not quite correctly treated here
         because it includes a symmetry number that is not yet correctly
         implemented in ORCA!
For a nonlinear molecule the correct rotational entropy is:
    S(rot) = R*(ln(qrot/sn)+1.5)
    R    = 8.31441 J/mol/K = 1.987191683e-3 kcal/mol/K
    qrot = 175341.2112217
    sn is the rotational symmetry number. We have assumed 3 here
       if it is different for your molecule then you should correct
       the printed rotational entropy by manually evaluating the equation
       as given above

For convenience we print out the resulting values for sn=1 - 12:
 sn= 1  qrot/sn=  175341.2112 T*S(rot)=     8.04 kcal/mol T*S(tot)=    23.25 kcal/mol
 sn= 2  qrot/sn=   87670.6056 T*S(rot)=     7.63 kcal/mol T*S(tot)=    22.84 kcal/mol
 sn= 3  qrot/sn=   58447.0704 T*S(rot)=     7.39 kcal/mol T*S(tot)=    22.60 kcal/mol
 sn= 4  qrot/sn=   43835.3028 T*S(rot)=     7.22 kcal/mol T*S(tot)=    22.43 kcal/mol
 sn= 5  qrot/sn=   35068.2422 T*S(rot)=     7.09 kcal/mol T*S(tot)=    22.29 kcal/mol
 sn= 6  qrot/sn=   29223.5352 T*S(rot)=     6.98 kcal/mol T*S(tot)=    22.19 kcal/mol
 sn= 7  qrot/sn=   25048.7445 T*S(rot)=     6.89 kcal/mol T*S(tot)=    22.10 kcal/mol
 sn= 8  qrot/sn=   21917.6514 T*S(rot)=     6.81 kcal/mol T*S(tot)=    22.02 kcal/mol
 sn= 9  qrot/sn=   19482.3568 T*S(rot)=     6.74 kcal/mol T*S(tot)=    21.95 kcal/mol
 sn=10  qrot/sn=   17534.1211 T*S(rot)=     6.68 kcal/mol T*S(tot)=    21.88 kcal/mol
 sn=11  qrot/sn=   15940.1101 T*S(rot)=     6.62 kcal/mol T*S(tot)=    21.83 kcal/mol
 sn=12  qrot/sn=   14611.7676 T*S(rot)=     6.57 kcal/mol T*S(tot)=    21.78 kcal/mol

-------------------
GIBBS FREE ENTHALPY
-------------------

The Gibbs free enthalpy is G = H - T*S

Total enthalpy                    ...   -271.25362879 Eh
Total entropy correction          ...     -0.03601136 Eh    -22.60 kcal/mol
-----------------------------------------------------------------------
Final Gibbs free enthalpy         ...   -271.28964015 Eh

                             ****ORCA TERMINATED NORMALLY****
TOTAL RUN TIME: 0 days 0 hours 28 minutes 29 seconds 13 msec
