                         Program Version 4.0.1 -  RELEASE  -
|  1> ! B3LYP 6-31G(d,p) Freq
|  2>
|  3> * xyzfile 0 1 etanol.xyz
|  4>
|  5>                          ****END OF INPUT****

CARTESIAN COORDINATES (ANGSTROEM)
---------------------------------
  C     -4.700090   -0.410710    0.015500
  C     -3.793590    0.799580   -0.053880
  H     -5.689480   -0.136500    0.392070
  H     -4.272070   -1.176320    0.671050
  H     -4.812210   -0.866070   -0.974040
  O     -2.523780    0.398750   -0.546410
  H     -3.663510    1.239310    0.939490
  H     -4.210930    1.553750   -0.727750
  H     -1.966270    1.194760   -0.579340

 Total Charge           Charge          ....    0
 Multiplicity           Mult            ....    1
 Number of Electrons    NEL             ....   26
 Basis Dimension        Dim             ....   72

ORBITAL ENERGIES
----------------

  NO   OCC          E(Eh)            E(eV)
   0   2.0000     -19.126356      -520.4546
   1   2.0000     -10.217797      -278.0404
   2   2.0000     -10.163855      -276.5726
   3   2.0000      -1.003986       -27.3199
   4   2.0000      -0.739939       -20.1348
   5   2.0000      -0.601816       -16.3762
   6   2.0000      -0.502969       -13.6865
   7   2.0000      -0.458087       -12.4652
   8   2.0000      -0.393272       -10.7015
   9   2.0000      -0.376068       -10.2333
  10   2.0000      -0.356491        -9.7006
  11   2.0000      -0.319025        -8.6811
  12   2.0000      -0.255167        -6.9434
  13   0.0000       0.080471         2.1897
  14   0.0000       0.125129         3.4049
  15   0.0000       0.160446         4.3659
  16   0.0000       0.167511         4.5582
  17   0.0000       0.178926         4.8688

MULLIKEN ATOMIC CHARGES
-----------------------
   0 C :   -0.313728
   1 C :    0.066046
   2 H :    0.097352
   3 H :    0.116474
   4 H :    0.113600
   5 O :   -0.538242
   6 H :    0.076421
   7 H :    0.078286
   8 H :    0.303791
Sum of atomic charges:    0.0000000

LOEWDIN ATOMIC CHARGES
----------------------
   0 C :   -0.203779
   1 C :    0.003270
   2 H :    0.072109
   3 H :    0.075437
   4 H :    0.074743
   5 O :   -0.280340
   6 H :    0.045873
   7 H :    0.046227
   8 H :    0.166460

  Mayer bond orders larger than 0.1
B(  0-C ,  1-C ) :   1.0245 B(  0-C ,  2-H ) :   0.9606 B(  0-C ,  3-H ) :   0.9635
B(  0-C ,  4-H ) :   0.9635 B(  1-C ,  5-O ) :   0.9572 B(  1-C ,  6-H ) :   0.9482
B(  1-C ,  7-H ) :   0.9486 B(  5-O ,  8-H ) :   0.8853

FINAL SINGLE POINT ENERGY      -154.947040643931

DIPOLE MOMENT
-------------
                                X             Y             Z
Electronic contribution:      2.51320       0.44533      -0.74055
Nuclear contribution   :     -2.64576       0.12585       0.89246
                        -----------------------------------------
Total Dipole Moment    :     -0.13255       0.57118       0.15191
                        -----------------------------------------
Magnitude (a.u.)       :      0.60572
Magnitude (Debye)      :      1.53962

VIBRATIONAL FREQUENCIES
-----------------------

   0:         0.00 cm**-1
   1:         0.00 cm**-1
   2:         0.00 cm**-1
   3:         0.00 cm**-1
   4:         0.00 cm**-1
   5:         0.00 cm**-1
   6:       241.41 cm**-1
   7:       413.47 cm**-1
   8:       429.63 cm**-1
   9:       809.74 cm**-1
  10:       911.33 cm**-1
  11:      1055.98 cm**-1
  12:      1147.26 cm**-1
  13:      1187.73 cm**-1
  14:      1302.48 cm**-1
  15:      1305.44 cm**-1
  16:      1415.58 cm**-1
  17:      1474.12 cm**-1
  18:      1492.59 cm**-1
  19:      1513.62 cm**-1
  20:      1530.78 cm**-1
  21:      3040.17 cm**-1
  22:      3052.32 cm**-1
  23:      3078.29 cm**-1
  24:      3121.87 cm**-1
  25:      3135.38 cm**-1
  26:      3725.99 cm**-1

IR SPECTRUM
-----------

 Mode    freq (cm**-1)   T**2         TX         TY         TZ
-------------------------------------------------------------------
   6:       241.41    1.700836  (  0.391303  -0.218973   1.224651)
   7:       413.47   10.658681  (  3.150537   0.116284  -0.848099)
   8:       429.63  121.833319  (  3.363650  -1.952371  10.329929)
   9:       809.74    0.011593  ( -0.032550  -0.016059  -0.101367)
  10:       911.33    9.796323  (  2.917905  -0.456934  -1.036034)
  11:      1055.98   44.843510  (  6.268291  -0.837459  -2.202431)
  12:      1147.26   35.346008  ( -5.411450   1.350189   2.058934)
  13:      1187.73    5.185227  (  0.710127  -0.400083   2.126236)
  14:      1302.48   88.581115  ( -8.437414   2.610468   3.252170)
  15:      1305.44    0.873023  ( -0.801991   0.258646   0.403654)
  16:      1415.58    1.330952  ( -1.086987  -0.103976   0.372290)
  17:      1474.12   13.584294  ( -1.755801  -3.240315  -0.042580)
  18:      1492.59    4.455854  ( -0.675158   0.403861  -1.958804)
  19:      1513.62    3.084842  (  1.310649  -0.976693  -0.642738)
  20:      1530.78    0.347715  (  0.391496   0.435334  -0.070218)
  21:      3040.17   69.890610  (  2.695702  -7.581160  -2.269320)
  22:      3052.32   13.987123  ( -2.392717  -2.865678   0.223418)
  23:      3078.29   49.571094  ( -2.183088   1.291019  -6.567990)
  24:      3121.87   55.770488  (  2.231121  -1.298545   7.007594)
  25:      3135.38   30.601957  ( -3.929579   3.424801   1.852323)
  26:      3725.99   10.980406  (  2.472088   2.170086  -0.399892)

--------------------------
THERMOCHEMISTRY AT 298.15K
--------------------------

Temperature         ... 298.15 K
Pressure            ... 1.00 atm
Total Mass          ... 46.07 AMU

Throughout the following assumptions are being made:
  (1) The electronic state is orbitally nondegenerate
  (2) There are no thermally accessible electronically excited states
  (3) Hindered rotations indicated by low frequency modes are not
      treated as such but are treated as vibrations and this may
      cause some error
  (4) All equations used are the standard statistical mechanics
      equations for an ideal gas
  (5) All vibrations are strictly harmonic

freq.     241.41  E(vib)   ...       0.31
freq.     413.47  E(vib)   ...       0.19
freq.     429.63  E(vib)   ...       0.18
freq.     809.74  E(vib)   ...       0.05
freq.     911.33  E(vib)   ...       0.03
freq.    1055.98  E(vib)   ...       0.02
freq.    1147.26  E(vib)   ...       0.01
freq.    1187.73  E(vib)   ...       0.01
freq.    1302.48  E(vib)   ...       0.01
freq.    1305.44  E(vib)   ...       0.01
freq.    1415.58  E(vib)   ...       0.00
freq.    1474.12  E(vib)   ...       0.00
freq.    1492.59  E(vib)   ...       0.00
freq.    1513.62  E(vib)   ...       0.00
freq.    1530.78  E(vib)   ...       0.00
freq.    3040.17  E(vib)   ...       0.00
freq.    3052.32  E(vib)   ...       0.00
freq.    3078.29  E(vib)   ...       0.00
freq.    3121.87  E(vib)   ...       0.00
freq.    3135.38  E(vib)   ...       0.00
freq.    3725.99  E(vib)   ...       0.00

------------
INNER ENERGY
------------

The inner energy is: U= E(el) + E(ZPE) + E(vib) + E(rot) + E(trans)
    E(el)   - is the total energy from the electronic structure calculation
              = E(kin-el) + E(nuc-el) + E(el-el) + E(nuc-nuc)
    E(ZPE)  - the the zero temperature vibrational energy from the frequency calculation
    E(vib)  - the the finite temperature correction to E(ZPE) due to population
              of excited vibrational states
    E(rot)  - is the rotational thermal energy
    E(trans)- is the translational thermal energy

Summary of contributions to the inner energy U:
Electronic energy                ...   -154.94704064 Eh
Zero point energy                ...      0.08061336 Eh      50.59 kcal/mol
Thermal vibrational correction   ...      0.00132068 Eh       0.83 kcal/mol
Thermal rotational correction    ...      0.00141627 Eh       0.89 kcal/mol
Thermal translational correction ...      0.00141627 Eh       0.89 kcal/mol
-----------------------------------------------------------------------
Total thermal energy                   -154.86227406 Eh

Summary of corrections to the electronic energy:
(perhaps to be used in another calculation)
Total thermal correction                  0.00415322 Eh       2.61 kcal/mol
Non-thermal (ZPE) correction              0.08061336 Eh      50.59 kcal/mol
-----------------------------------------------------------------------
Total correction                          0.08476658 Eh      53.19 kcal/mol

--------
ENTHALPY
--------

The enthalpy is H = U + kB*T
                kB is Boltzmann's constant
Total free energy                 ...   -154.86227406 Eh
Thermal Enthalpy correction       ...      0.00094421 Eh       0.59 kcal/mol
-----------------------------------------------------------------------
Total Enthalpy                    ...   -154.86132985 Eh

Vibrational entropy computed according to the QRRHO of S. Grimme
Chem.Eur.J. 2012 18 9955

-------
ENTROPY
-------

The entropy contributions are T*S = T*(S(el)+S(vib)+S(rot)+S(trans)
     S(el)   - electronic entropy
     S(vib)  - vibrational entropy
     S(rot)  - rotational entropy
     S(trans)- translational entropy
The entropies will be listed as mutliplied by the temperature to get
units of energy

Electronic entropy                ...      0.00000000 Eh      0.00 kcal/mol
Vibrational entropy               ...      0.00199356 Eh      1.25 kcal/mol
Rotational entropy                ...      0.00955797 Eh      6.00 kcal/mol
Translational entropy             ...      0.01777359 Eh     11.15 kcal/mol
-----------------------------------------------------------------------
Final entropy term                ...      0.02932513 Eh     18.40 kcal/mol

CAUTION: The rotational entropy is not quite correctly treated here
         because it includes a symmetry number that is not yet correctly
         implemented in ORCA!
For a nonlinear molecule the correct rotational entropy is:
    S(rot) = R*(ln(qrot/sn)+1.5)
    R    = 8.31441 J/mol/K = 1.987191683e-3 kcal/mol/K
    qrot = 16674.6357998
    sn is the rotational symmetry number. We have assumed 3 here
       if it is different for your molecule then you should correct
       the printed rotational entropy by manually evaluating the equation
       as given above

For convenience we print out the resulting values for sn=1 - 12:
 sn= 1  qrot/sn=   16674.6358 T*S(rot)=     6.65 kcal/mol T*S(tot)=    19.05 kcal/mol
 sn= 2  qrot/sn=    8337.3179 T*S(rot)=     6.24 kcal/mol T*S(tot)=    18.64 kcal/mol
 sn= 3  qrot/sn=    5558.2119 T*S(rot)=     6.00 kcal/mol T*S(tot)=    18.40 kcal/mol
 sn= 4  qrot/sn=    4168.6589 T*S(rot)=     5.83 kcal/mol T*S(tot)=    18.23 kcal/mol
 sn= 5  qrot/sn=    3334.9272 T*S(rot)=     5.70 kcal/mol T*S(tot)=    18.10 kcal/mol
 sn= 6  qrot/sn=    2779.1060 T*S(rot)=     5.59 kcal/mol T*S(tot)=    17.99 kcal/mol
 sn= 7  qrot/sn=    2382.0908 T*S(rot)=     5.50 kcal/mol T*S(tot)=    17.90 kcal/mol
 sn= 8  qrot/sn=    2084.3295 T*S(rot)=     5.42 kcal/mol T*S(tot)=    17.82 kcal/mol
 sn= 9  qrot/sn=    1852.7373 T*S(rot)=     5.35 kcal/mol T*S(tot)=    17.75 kcal/mol
 sn=10  qrot/sn=    1667.4636 T*S(rot)=     5.28 kcal/mol T*S(tot)=    17.69 kcal/mol
 sn=11  qrot/sn=    1515.8760 T*S(rot)=     5.23 kcal/mol T*S(tot)=    17.63 kcal/mol
 sn=12  qrot/sn=    1389.5530 T*S(rot)=     5.18 kcal/mol T*S(tot)=    17.58 kcal/mol

-------------------
GIBBS FREE ENTHALPY
-------------------

The Gibbs free enthalpy is G = H - T*S

Total enthalpy                    ...   -154.86132985 Eh
Total entropy correction          ...     -0.02932513 Eh    -18.40 kcal/mol
-----------------------------------------------------------------------
Final Gibbs free enthalpy         ...   -154.89065498 Eh

For completeness - the Gibbs free enthalpy minus the electronic energy
G-E(el)                           ...      0.05638567 Eh     35.38 kcal/mol

                             ****ORCA TERMINATED NORMALLY****
TOTAL RUN TIME: 0 days 0 hours 2 minutes 22 seconds 957 msec
