                         Program Version 4.0.1 -  RELEASE  -
|  1> ! B3LYP 6-31G(d,p) CPCM(water) NumFreq
|  2>
|  3> * xyzfile 0 1 acetamida.xyz
|  4>
|  5>                          ****END OF INPUT****

CARTESIAN COORDINATES (ANGSTROEM)
---------------------------------
  C     -4.699030   -0.460890   -0.036580
  C     -3.683770    0.639570   -0.142460
  H     -5.707140   -0.038520   -0.069540
  H     -4.561410   -1.001890    0.903710
  H     -4.576560   -1.157510   -0.870300
  O     -2.855180    0.718160   -1.040080
  N     -3.747650    1.568440    0.852170
  H     -3.084210    2.331760    0.826730
  H     -4.420210    1.528460    1.604330

 Total Charge           Charge          ....    0
 Multiplicity           Mult            ....    1
 Number of Electrons    NEL             ....   32
 Basis Dimension        Dim             ....   81

ORBITAL ENERGIES
----------------

  NO   OCC          E(Eh)            E(eV)
   0   2.0000     -19.105586      -519.8894
   1   2.0000     -14.337299      -390.1377
   2   2.0000     -10.280991      -279.7600
   3   2.0000     -10.172457      -276.8066
   4   2.0000      -1.027934       -27.9715
   5   2.0000      -0.889201       -24.1964
   6   2.0000      -0.729342       -19.8464
   7   2.0000      -0.574359       -15.6291
   8   2.0000      -0.520072       -14.1519
   9   2.0000      -0.461674       -12.5628
  10   2.0000      -0.439268       -11.9531
  11   2.0000      -0.399218       -10.8633
  12   2.0000      -0.385851       -10.4996
  13   2.0000      -0.358915        -9.7666
  14   2.0000      -0.260366        -7.0849
  15   2.0000      -0.250397        -6.8136
  16   0.0000       0.035614         0.9691
  17   0.0000       0.099129         2.6975
  18   0.0000       0.140240         3.8161
  19   0.0000       0.165009         4.4901
  20   0.0000       0.175711         4.7813

MULLIKEN ATOMIC CHARGES
-----------------------
   0 C :   -0.400482
   1 C :    0.479381
   2 H :    0.149379
   3 H :    0.151150
   4 H :    0.133648
   5 O :   -0.539733
   6 N :   -0.573859
   7 H :    0.296325
   8 H :    0.304192
Sum of atomic charges:   -0.0000000

LOEWDIN ATOMIC CHARGES
----------------------
   0 C :   -0.225388
   1 C :    0.110417
   2 H :    0.098183
   3 H :    0.098760
   4 H :    0.088822
   5 O :   -0.343572
   6 N :   -0.151739
   7 H :    0.160432
   8 H :    0.164086

  Mayer bond orders larger than 0.1
B(  0-C ,  1-C ) :   0.9831 B(  0-C ,  2-H ) :   0.9442 B(  0-C ,  3-H ) :   0.9438
B(  0-C ,  4-H ) :   0.9597 B(  1-C ,  5-O ) :   1.8518 B(  1-C ,  6-N ) :   1.1940
B(  6-N ,  7-H ) :   0.8772 B(  6-N ,  8-H ) :   0.8756

FINAL SINGLE POINT ENERGY      -209.115557868548

DIPOLE MOMENT
-------------
                                X             Y             Z
Electronic contribution:      2.24731       1.65887      -1.00123
Nuclear contribution   :     -3.37312      -1.39467       2.59033
                        -----------------------------------------
Total Dipole Moment    :     -1.12581       0.26420       1.58910
                        -----------------------------------------
Magnitude (a.u.)       :      1.96532
Magnitude (Debye)      :      4.99545

VIBRATIONAL FREQUENCIES
-----------------------

   0:         0.00 cm**-1
   1:         0.00 cm**-1
   2:         0.00 cm**-1
   3:         0.00 cm**-1
   4:         0.00 cm**-1
   5:         0.00 cm**-1
   6:       -94.17 cm**-1 ***imaginary mode***
   7:        37.59 cm**-1
   8:       428.33 cm**-1
   9:       534.77 cm**-1
  10:       556.01 cm**-1
  11:       646.51 cm**-1
  12:       881.38 cm**-1
  13:       991.45 cm**-1
  14:      1061.23 cm**-1
  15:      1129.82 cm**-1
  16:      1347.54 cm**-1
  17:      1419.48 cm**-1
  18:      1458.22 cm**-1
  19:      1479.04 cm**-1
  20:      1612.32 cm**-1
  21:      1798.38 cm**-1
  22:      3057.51 cm**-1
  23:      3140.54 cm**-1
  24:      3143.61 cm**-1
  25:      3574.24 cm**-1
  26:      3711.63 cm**-1

IR SPECTRUM
-----------

 Mode    freq (cm**-1)   T**2         TX         TY         TZ
-------------------------------------------------------------------
   7:        37.59  316.793360  (-11.338897   9.536558  -9.862901)
   8:       428.33    7.433000  (  2.071760   1.469899  -0.990054)
   9:       534.77    2.061363  (  1.044777  -0.524075   0.833757)
  10:       556.01   27.315975  (  1.516877   4.384241   2.406968)
  11:       646.51    9.153442  (  1.876201  -1.816310   1.527851)
  12:       881.38    1.031461  (  0.511185   0.861675   0.166333)
  13:       991.45   13.383784  (  0.963580  -1.928012  -2.956022)
  14:      1061.23    8.619619  (  1.914354  -1.588759   1.559074)
  15:      1129.82    2.232016  ( -0.418554  -1.252042  -0.699443)
  16:      1347.54  118.387363  (  0.344803  -7.472091  -7.901666)
  17:      1419.48  159.095943  ( -4.192886 -10.523146  -5.547887)
  18:      1458.22   19.613768  ( -2.691384   0.048064   3.516804)
  19:      1479.04   11.737831  (  2.286138  -1.919139   1.681758)
  20:      1612.32  197.944978  (  1.708954  10.917141   8.708644)
  21:      1798.38  568.679623  (-14.052573   2.540298  19.098474)
  22:      3057.51    3.541102  (  1.145035   1.492887   0.035865)
  23:      3140.54    6.942107  ( -1.873372   1.671100  -0.800005)
  24:      3143.61   15.153744  (  0.793098  -1.769544  -3.375419)
  25:      3574.24   75.385953  ( -0.107587   6.094715   6.182947)
  26:      3711.63   82.340461  (  6.910986   3.451334  -4.760991)

--------------------------
THERMOCHEMISTRY AT 298.15K
--------------------------

Temperature         ... 298.15 K
Pressure            ... 1.00 atm
Total Mass          ... 59.07 AMU

Throughout the following assumptions are being made:
  (1) The electronic state is orbitally nondegenerate
  (2) There are no thermally accessible electronically excited states
  (3) Hindered rotations indicated by low frequency modes are not
      treated as such but are treated as vibrations and this may
      cause some error
  (4) All equations used are the standard statistical mechanics
      equations for an ideal gas
  (5) All vibrations are strictly harmonic

freq.      37.59  E(vib)   ...       0.54
freq.     428.33  E(vib)   ...       0.18
freq.     534.77  E(vib)   ...       0.13
freq.     556.01  E(vib)   ...       0.12
freq.     646.51  E(vib)   ...       0.09
freq.     881.38  E(vib)   ...       0.04
freq.     991.45  E(vib)   ...       0.02
freq.    1061.23  E(vib)   ...       0.02
freq.    1129.82  E(vib)   ...       0.01
freq.    1347.54  E(vib)   ...       0.01
freq.    1419.48  E(vib)   ...       0.00
freq.    1458.22  E(vib)   ...       0.00
freq.    1479.04  E(vib)   ...       0.00
freq.    1612.32  E(vib)   ...       0.00
freq.    1798.38  E(vib)   ...       0.00
freq.    3057.51  E(vib)   ...       0.00
freq.    3140.54  E(vib)   ...       0.00
freq.    3143.61  E(vib)   ...       0.00
freq.    3574.24  E(vib)   ...       0.00
freq.    3711.63  E(vib)   ...       0.00

------------
INNER ENERGY
------------

The inner energy is: U= E(el) + E(ZPE) + E(vib) + E(rot) + E(trans)
    E(el)   - is the total energy from the electronic structure calculation
              = E(kin-el) + E(nuc-el) + E(el-el) + E(nuc-nuc)
    E(ZPE)  - the the zero temperature vibrational energy from the frequency calculation
    E(vib)  - the the finite temperature correction to E(ZPE) due to population
              of excited vibrational states
    E(rot)  - is the rotational thermal energy
    E(trans)- is the translational thermal energy

Summary of contributions to the inner energy U:
Electronic energy                ...   -209.11555787 Eh
Zero point energy                ...      0.07292329 Eh      45.76 kcal/mol
Thermal vibrational correction   ...      0.00184458 Eh       1.16 kcal/mol
Thermal rotational correction    ...      0.00141627 Eh       0.89 kcal/mol
Thermal translational correction ...      0.00141627 Eh       0.89 kcal/mol
-----------------------------------------------------------------------
Total thermal energy                   -209.03795745 Eh

Summary of corrections to the electronic energy:
(perhaps to be used in another calculation)
Total thermal correction                  0.00467713 Eh       2.93 kcal/mol
Non-thermal (ZPE) correction              0.07292329 Eh      45.76 kcal/mol
-----------------------------------------------------------------------
Total correction                          0.07760042 Eh      48.69 kcal/mol

--------
ENTHALPY
--------

The enthalpy is H = U + kB*T
                kB is Boltzmann's constant
Total free energy                 ...   -209.03795745 Eh
Thermal Enthalpy correction       ...      0.00094421 Eh       0.59 kcal/mol
-----------------------------------------------------------------------
Total Enthalpy                    ...   -209.03701324 Eh

Vibrational entropy computed according to the QRRHO of S. Grimme
Chem.Eur.J. 2012 18 9955

-------
ENTROPY
-------

The entropy contributions are T*S = T*(S(el)+S(vib)+S(rot)+S(trans)
     S(el)   - electronic entropy
     S(vib)  - vibrational entropy
     S(rot)  - rotational entropy
     S(trans)- translational entropy
The entropies will be listed as mutliplied by the temperature to get
units of energy

Electronic entropy                ...      0.00000000 Eh      0.00 kcal/mol
Vibrational entropy               ...      0.00316537 Eh      1.99 kcal/mol
Rotational entropy                ...      0.01033037 Eh      6.48 kcal/mol
Translational entropy             ...      0.01812560 Eh     11.37 kcal/mol
-----------------------------------------------------------------------
Final entropy term                ...      0.03162134 Eh     19.84 kcal/mol

CAUTION: The rotational entropy is not quite correctly treated here
         because it includes a symmetry number that is not yet correctly
         implemented in ORCA!
For a nonlinear molecule the correct rotational entropy is:
    S(rot) = R*(ln(qrot/sn)+1.5)
    R    = 8.31441 J/mol/K = 1.987191683e-3 kcal/mol/K
    qrot = 37786.1720929
    sn is the rotational symmetry number. We have assumed 3 here
       if it is different for your molecule then you should correct
       the printed rotational entropy by manually evaluating the equation
       as given above

For convenience we print out the resulting values for sn=1 - 12:
 sn= 1  qrot/sn=   37786.1721 T*S(rot)=     7.13 kcal/mol T*S(tot)=    20.49 kcal/mol
 sn= 2  qrot/sn=   18893.0860 T*S(rot)=     6.72 kcal/mol T*S(tot)=    20.08 kcal/mol
 sn= 3  qrot/sn=   12595.3907 T*S(rot)=     6.48 kcal/mol T*S(tot)=    19.84 kcal/mol
 sn= 4  qrot/sn=    9446.5430 T*S(rot)=     6.31 kcal/mol T*S(tot)=    19.67 kcal/mol
 sn= 5  qrot/sn=    7557.2344 T*S(rot)=     6.18 kcal/mol T*S(tot)=    19.54 kcal/mol
 sn= 6  qrot/sn=    6297.6953 T*S(rot)=     6.07 kcal/mol T*S(tot)=    19.43 kcal/mol
 sn= 7  qrot/sn=    5398.0246 T*S(rot)=     5.98 kcal/mol T*S(tot)=    19.34 kcal/mol
 sn= 8  qrot/sn=    4723.2715 T*S(rot)=     5.90 kcal/mol T*S(tot)=    19.26 kcal/mol
 sn= 9  qrot/sn=    4198.4636 T*S(rot)=     5.83 kcal/mol T*S(tot)=    19.19 kcal/mol
 sn=10  qrot/sn=    3778.6172 T*S(rot)=     5.77 kcal/mol T*S(tot)=    19.13 kcal/mol
 sn=11  qrot/sn=    3435.1066 T*S(rot)=     5.71 kcal/mol T*S(tot)=    19.07 kcal/mol
 sn=12  qrot/sn=    3148.8477 T*S(rot)=     5.66 kcal/mol T*S(tot)=    19.02 kcal/mol

-------------------
GIBBS FREE ENTHALPY
-------------------

The Gibbs free enthalpy is G = H - T*S

Total enthalpy                    ...   -209.03701324 Eh
Total entropy correction          ...     -0.03162134 Eh    -19.84 kcal/mol
-----------------------------------------------------------------------
Final Gibbs free enthalpy         ...   -209.06863458 Eh

For completeness - the Gibbs free enthalpy minus the electronic energy
G-E(el)                           ...      0.04692329 Eh     29.44 kcal/mol

                             ****ORCA TERMINATED NORMALLY****
TOTAL RUN TIME: 0 days 0 hours 25 minutes 56 seconds 954 msec
